MODEL 1
REMARK VINA RESULT:    -7.642      0.000      0.000
REMARK INTER + INTRA:         -10.823
REMARK INTER:                  -9.876
REMARK INTRA:                  -0.947
REMARK UNBOUND:                -0.947
REMARK  5 active torsions:
REMARK  status: ('A' for Active; 'I' for Inactive)
REMARK    1  A    between atoms: C_3  and  S_13 
REMARK    2  A    between atoms: C_9  and  C_11 
REMARK    3  A    between atoms: C_11  and  C_12 
REMARK    4  A    between atoms: C_12  and  S_13 
REMARK    5  A    between atoms: C_17  and  C_18 
ROOT
HETATM    1  C   UNL     1       6.138  -3.361  20.890  1.00  0.00     0.084 A 
HETATM    2  C   UNL     1       7.156  -3.911  21.687  1.00  0.00     0.039 A 
HETATM    3  C   UNL     1       8.190  -3.182  22.140  1.00  0.00     0.084 A 
HETATM    4  N   UNL     1       8.272  -1.890  21.794  1.00  0.00    -0.346 N 
ATOM      5  HN  UNL     1       9.064  -1.322  22.097  1.00  0.00     0.167 HD
HETATM    6  N   UNL     1       6.204  -2.080  20.570  1.00  0.00    -0.346 N 
ATOM      7  HN  UNL     1       5.476  -1.651  19.997  1.00  0.00     0.167 HD
HETATM    8  C   UNL     1       7.266  -1.335  21.019  1.00  0.00     0.182 A 
HETATM    9  S   UNL     1       5.083  -4.505  20.609  1.00  0.00    -0.107 SA
HETATM   10  C   UNL     1       5.642  -5.799  21.280  1.00  0.00     0.121 A 
HETATM   11  C   UNL     1       6.864  -5.449  21.967  1.00  0.00    -0.022 A 
ENDROOT
BRANCH  11  12
HETATM   12  C   UNL     1       7.567  -6.586  22.687  1.00  0.00    -0.028 A 
HETATM   13  C   UNL     1       7.387  -6.933  24.006  1.00  0.00     0.012 A 
HETATM   14  C   UNL     1       8.121  -7.986  24.525  1.00  0.00     0.007 A 
HETATM   15  C   UNL     1       9.042  -8.672  23.755  1.00  0.00    -0.062 A 
HETATM   16  C   UNL     1       9.829  -9.828  24.365  1.00  0.00     0.048 C 
HETATM   17  C   UNL     1       9.228  -8.319  22.435  1.00  0.00     0.007 A 
HETATM   18  C   UNL     1       8.496  -7.276  21.917  1.00  0.00     0.012 A 
ENDBRANCH  11  12
BRANCH   3  19
HETATM   19  S   UNL     1       9.499  -3.805  23.226  1.00  0.00    -0.111 SA
BRANCH  19  20
HETATM   20  C   UNL     1      10.364  -2.313  23.783  1.00  0.00     0.091 C 
BRANCH  20  21
HETATM   21  C   UNL     1      11.696  -2.200  23.045  1.00  0.00     0.123 C 
BRANCH  21  22
HETATM   22  C   UNL     1      11.795  -0.971  22.145  1.00  0.00     0.173 C 
HETATM   23  O   UNL     1      12.885  -0.337  22.136  1.00  0.00    -0.648 OA
HETATM   24  O   UNL     1      10.832  -0.593  21.426  1.00  0.00    -0.648 OA
ENDBRANCH  21  22
ENDBRANCH  20  21
ENDBRANCH  19  20
ENDBRANCH   3  19
TORSDOF 5
ENDMDL
MODEL 2
REMARK VINA RESULT:    -7.411      2.731      3.989
REMARK INTER + INTRA:         -10.524
REMARK INTER:                 -10.504
REMARK INTRA:                  -0.020
REMARK UNBOUND:                -0.947
REMARK  5 active torsions:
REMARK  status: ('A' for Active; 'I' for Inactive)
REMARK    1  A    between atoms: C_3  and  S_13 
REMARK    2  A    between atoms: C_9  and  C_11 
REMARK    3  A    between atoms: C_11  and  C_12 
REMARK    4  A    between atoms: C_12  and  S_13 
REMARK    5  A    between atoms: C_17  and  C_18 
ROOT
HETATM    1  C   UNL     1       9.221  -1.457  21.617  1.00  0.00     0.084 A 
HETATM    2  C   UNL     1       9.094  -2.753  22.143  1.00  0.00     0.039 A 
HETATM    3  C   UNL     1      10.112  -3.388  22.748  1.00  0.00     0.084 A 
HETATM    4  N   UNL     1      11.302  -2.777  22.826  1.00  0.00    -0.346 N 
ATOM      5  HN  UNL     1      12.100  -3.250  23.251  1.00  0.00     0.167 HD
HETATM    6  N   UNL     1      10.387  -0.842  21.716  1.00  0.00    -0.346 N 
ATOM      7  HN  UNL     1      10.508   0.102  21.349  1.00  0.00     0.167 HD
HETATM    8  C   UNL     1      11.434  -1.493  22.321  1.00  0.00     0.182 A 
HETATM    9  S   UNL     1       7.808  -1.035  21.044  1.00  0.00    -0.107 SA
HETATM   10  C   UNL     1       6.865  -2.263  21.240  1.00  0.00     0.121 A 
HETATM   11  C   UNL     1       7.610  -3.287  21.936  1.00  0.00    -0.022 A 
ENDROOT
BRANCH  11  12
HETATM   12  C   UNL     1       6.857  -4.575  22.220  1.00  0.00    -0.028 A 
HETATM   13  C   UNL     1       7.159  -5.477  23.214  1.00  0.00     0.012 A 
HETATM   14  C   UNL     1       6.388  -6.621  23.332  1.00  0.00     0.007 A 
HETATM   15  C   UNL     1       5.346  -6.882  22.462  1.00  0.00    -0.062 A 
HETATM   16  C   UNL     1       4.520  -8.154  22.629  1.00  0.00     0.048 C 
HETATM   17  C   UNL     1       5.049  -5.982  21.460  1.00  0.00     0.007 A 
HETATM   18  C   UNL     1       5.812  -4.842  21.344  1.00  0.00     0.012 A 
ENDBRANCH  11  12
BRANCH   3  19
HETATM   19  S   UNL     1      10.003  -5.028  23.510  1.00  0.00    -0.111 SA
BRANCH  19  20
HETATM   20  C   UNL     1      11.601  -5.799  23.142  1.00  0.00     0.091 C 
BRANCH  20  21
HETATM   21  C   UNL     1      12.290  -6.174  24.452  1.00  0.00     0.123 C 
BRANCH  21  22
HETATM   22  C   UNL     1      13.331  -5.155  24.911  1.00  0.00     0.173 C 
HETATM   23  O   UNL     1      13.348  -4.034  24.333  1.00  0.00    -0.648 OA
HETATM   24  O   UNL     1      14.149  -5.408  25.835  1.00  0.00    -0.648 OA
ENDBRANCH  21  22
ENDBRANCH  20  21
ENDBRANCH  19  20
ENDBRANCH   3  19
TORSDOF 5
ENDMDL
MODEL 3
REMARK VINA RESULT:    -7.356      2.580      4.521
REMARK INTER + INTRA:         -10.453
REMARK INTER:                  -9.960
REMARK INTRA:                  -0.493
REMARK UNBOUND:                -0.947
REMARK  5 active torsions:
REMARK  status: ('A' for Active; 'I' for Inactive)
REMARK    1  A    between atoms: C_3  and  S_13 
REMARK    2  A    between atoms: C_9  and  C_11 
REMARK    3  A    between atoms: C_11  and  C_12 
REMARK    4  A    between atoms: C_12  and  S_13 
REMARK    5  A    between atoms: C_17  and  C_18 
ROOT
HETATM    1  C   UNL     1      11.922  -6.681  23.435  1.00  0.00     0.084 A 
HETATM    2  C   UNL     1      10.748  -5.916  23.349  1.00  0.00     0.039 A 
HETATM    3  C   UNL     1      10.724  -4.599  23.617  1.00  0.00     0.084 A 
HETATM    4  N   UNL     1      11.855  -3.998  24.011  1.00  0.00    -0.346 N 
ATOM      5  HN  UNL     1      11.857  -3.007  24.252  1.00  0.00     0.167 HD
HETATM    6  N   UNL     1      13.045  -6.084  23.799  1.00  0.00    -0.346 N 
ATOM      7  HN  UNL     1      13.915  -6.612  23.865  1.00  0.00     0.167 HD
HETATM    8  C   UNL     1      13.022  -4.742  24.087  1.00  0.00     0.182 A 
HETATM    9  S   UNL     1      11.563  -8.157  22.994  1.00  0.00    -0.107 SA
HETATM   10  C   UNL     1      10.029  -8.173  22.707  1.00  0.00     0.121 A 
HETATM   11  C   UNL     1       9.533  -6.826  22.874  1.00  0.00    -0.022 A 
ENDROOT
BRANCH  11  12
HETATM   12  C   UNL     1       8.045  -6.635  22.638  1.00  0.00    -0.028 A 
HETATM   13  C   UNL     1       7.474  -5.622  21.904  1.00  0.00     0.012 A 
HETATM   14  C   UNL     1       6.094  -5.571  21.799  1.00  0.00     0.007 A 
HETATM   15  C   UNL     1       5.288  -6.498  22.432  1.00  0.00    -0.062 A 
HETATM   16  C   UNL     1       3.771  -6.407  22.289  1.00  0.00     0.048 C 
HETATM   17  C   UNL     1       5.860  -7.509  23.175  1.00  0.00     0.007 A 
HETATM   18  C   UNL     1       7.231  -7.563  23.277  1.00  0.00     0.012 A 
ENDBRANCH  11  12
BRANCH   3  19
HETATM   19  S   UNL     1       9.266  -3.538  23.460  1.00  0.00    -0.111 SA
BRANCH  19  20
HETATM   20  C   UNL     1       9.920  -1.854  23.610  1.00  0.00     0.091 C 
BRANCH  20  21
HETATM   21  C   UNL     1      10.171  -1.287  22.214  1.00  0.00     0.123 C 
BRANCH  21  22
HETATM   22  C   UNL     1      11.636  -0.954  21.943  1.00  0.00     0.173 C 
HETATM   23  O   UNL     1      12.504  -1.468  22.700  1.00  0.00    -0.648 OA
HETATM   24  O   UNL     1      11.983  -0.196  20.998  1.00  0.00    -0.648 OA
ENDBRANCH  21  22
ENDBRANCH  20  21
ENDBRANCH  19  20
ENDBRANCH   3  19
TORSDOF 5
ENDMDL
MODEL 4
REMARK VINA RESULT:    -7.344      4.293      7.448
REMARK INTER + INTRA:         -10.438
REMARK INTER:                  -9.880
REMARK INTRA:                  -0.558
REMARK UNBOUND:                -0.947
REMARK  5 active torsions:
REMARK  status: ('A' for Active; 'I' for Inactive)
REMARK    1  A    between atoms: C_3  and  S_13 
REMARK    2  A    between atoms: C_9  and  C_11 
REMARK    3  A    between atoms: C_11  and  C_12 
REMARK    4  A    between atoms: C_12  and  S_13 
REMARK    5  A    between atoms: C_17  and  C_18 
ROOT
HETATM    1  C   UNL     1      13.413  -7.434  24.718  1.00  0.00     0.084 A 
HETATM    2  C   UNL     1      12.343  -6.934  23.959  1.00  0.00     0.039 A 
HETATM    3  C   UNL     1      11.535  -7.732  23.239  1.00  0.00     0.084 A 
HETATM    4  N   UNL     1      11.776  -9.049  23.219  1.00  0.00    -0.346 N 
ATOM      5  HN  UNL     1      11.198  -9.672  22.655  1.00  0.00     0.167 HD
HETATM    6  N   UNL     1      13.637  -8.738  24.720  1.00  0.00    -0.346 N 
ATOM      7  HN  UNL     1      14.403  -9.131  25.267  1.00  0.00     0.167 HD
HETATM    8  C   UNL     1      12.822  -9.554  23.976  1.00  0.00     0.182 A 
HETATM    9  S   UNL     1      14.085  -6.209  25.459  1.00  0.00    -0.107 SA
HETATM   10  C   UNL     1      13.321  -4.932  24.988  1.00  0.00     0.121 A 
HETATM   11  C   UNL     1      12.246  -5.355  24.120  1.00  0.00    -0.022 A 
ENDROOT
BRANCH  11  12
HETATM   12  C   UNL     1      11.380  -4.244  23.551  1.00  0.00    -0.028 A 
HETATM   13  C   UNL     1      10.007  -4.184  23.619  1.00  0.00     0.012 A 
HETATM   14  C   UNL     1       9.357  -3.113  23.030  1.00  0.00     0.007 A 
HETATM   15  C   UNL     1      10.055  -2.125  22.360  1.00  0.00    -0.062 A 
HETATM   16  C   UNL     1       9.300  -0.960  21.727  1.00  0.00     0.048 C 
HETATM   17  C   UNL     1      11.431  -2.190  22.285  1.00  0.00     0.007 A 
HETATM   18  C   UNL     1      12.078  -3.252  22.874  1.00  0.00     0.012 A 
ENDBRANCH  11  12
BRANCH   3  19
HETATM   19  S   UNL     1      10.098  -7.166  22.294  1.00  0.00    -0.111 SA
BRANCH  19  20
HETATM   20  C   UNL     1       8.706  -8.083  23.006  1.00  0.00     0.091 C 
BRANCH  20  21
HETATM   21  C   UNL     1       7.907  -7.155  23.918  1.00  0.00     0.123 C 
BRANCH  21  22
HETATM   22  C   UNL     1       6.675  -6.550  23.249  1.00  0.00     0.173 C 
HETATM   23  O   UNL     1       5.635  -7.261  23.185  1.00  0.00    -0.648 OA
HETATM   24  O   UNL     1       6.680  -5.383  22.775  1.00  0.00    -0.648 OA
ENDBRANCH  21  22
ENDBRANCH  20  21
ENDBRANCH  19  20
ENDBRANCH   3  19
TORSDOF 5
ENDMDL
MODEL 5
REMARK VINA RESULT:    -7.227      4.052      6.202
REMARK INTER + INTRA:         -10.286
REMARK INTER:                  -9.884
REMARK INTRA:                  -0.401
REMARK UNBOUND:                -0.947
REMARK  5 active torsions:
REMARK  status: ('A' for Active; 'I' for Inactive)
REMARK    1  A    between atoms: C_3  and  S_13 
REMARK    2  A    between atoms: C_9  and  C_11 
REMARK    3  A    between atoms: C_11  and  C_12 
REMARK    4  A    between atoms: C_12  and  S_13 
REMARK    5  A    between atoms: C_17  and  C_18 
ROOT
HETATM    1  C   UNL     1       4.813  -7.388  22.226  1.00  0.00     0.084 A 
HETATM    2  C   UNL     1       6.090  -6.873  22.500  1.00  0.00     0.039 A 
HETATM    3  C   UNL     1       7.041  -7.594  23.117  1.00  0.00     0.084 A 
HETATM    4  N   UNL     1       6.752  -8.840  23.516  1.00  0.00    -0.346 N 
ATOM      5  HN  UNL     1       7.445  -9.397  24.016  1.00  0.00     0.167 HD
HETATM    6  N   UNL     1       4.534  -8.627  22.596  1.00  0.00    -0.346 N 
ATOM      7  HN  UNL     1       3.617  -9.030  22.405  1.00  0.00     0.167 HD
HETATM    8  C   UNL     1       5.498  -9.362  23.239  1.00  0.00     0.182 A 
HETATM    9  S   UNL     1       4.006  -6.272  21.448  1.00  0.00    -0.107 SA
HETATM   10  C   UNL     1       4.943  -5.026  21.361  1.00  0.00     0.121 A 
HETATM   11  C   UNL     1       6.212  -5.385  21.950  1.00  0.00    -0.022 A 
ENDROOT
BRANCH  11  12
HETATM   12  C   UNL     1       7.267  -4.293  21.963  1.00  0.00    -0.028 A 
HETATM   13  C   UNL     1       8.195  -4.087  22.958  1.00  0.00     0.012 A 
HETATM   14  C   UNL     1       9.081  -3.030  22.835  1.00  0.00     0.007 A 
HETATM   15  C   UNL     1       9.034  -2.172  21.752  1.00  0.00    -0.062 A 
HETATM   16  C   UNL     1      10.031  -1.021  21.653  1.00  0.00     0.048 C 
HETATM   17  C   UNL     1       8.098  -2.374  20.758  1.00  0.00     0.007 A 
HETATM   18  C   UNL     1       7.220  -3.426  20.878  1.00  0.00     0.012 A 
ENDBRANCH  11  12
BRANCH   3  19
HETATM   19  S   UNL     1       8.729  -7.021  23.440  1.00  0.00    -0.111 SA
BRANCH  19  20
HETATM   20  C   UNL     1       9.628  -7.397  21.913  1.00  0.00     0.091 C 
BRANCH  20  21
HETATM   21  C   UNL     1      10.095  -8.851  21.950  1.00  0.00     0.123 C 
BRANCH  21  22
HETATM   22  C   UNL     1       9.384  -9.749  20.940  1.00  0.00     0.173 C 
HETATM   23  O   UNL     1      10.093 -10.530  20.249  1.00  0.00    -0.648 OA
HETATM   24  O   UNL     1       8.133  -9.725  20.793  1.00  0.00    -0.648 OA
ENDBRANCH  21  22
ENDBRANCH  20  21
ENDBRANCH  19  20
ENDBRANCH   3  19
TORSDOF 5
ENDMDL
MODEL 6
REMARK VINA RESULT:    -7.164      3.467      5.527
REMARK INTER + INTRA:         -10.205
REMARK INTER:                  -9.503
REMARK INTRA:                  -0.701
REMARK UNBOUND:                -0.947
REMARK  5 active torsions:
REMARK  status: ('A' for Active; 'I' for Inactive)
REMARK    1  A    between atoms: C_3  and  S_13 
REMARK    2  A    between atoms: C_9  and  C_11 
REMARK    3  A    between atoms: C_11  and  C_12 
REMARK    4  A    between atoms: C_12  and  S_13 
REMARK    5  A    between atoms: C_17  and  C_18 
ROOT
HETATM    1  C   UNL     1       4.686  -7.999  21.704  1.00  0.00     0.084 A 
HETATM    2  C   UNL     1       5.968  -7.426  21.753  1.00  0.00     0.039 A 
HETATM    3  C   UNL     1       7.088  -8.168  21.775  1.00  0.00     0.084 A 
HETATM    4  N   UNL     1       6.981  -9.504  21.784  1.00  0.00    -0.346 N 
ATOM      5  HN  UNL     1       7.815 -10.089  21.834  1.00  0.00     0.167 HD
HETATM    6  N   UNL     1       4.579  -9.317  21.686  1.00  0.00    -0.346 N 
ATOM      7  HN  UNL     1       3.662  -9.762  21.645  1.00  0.00     0.167 HD
HETATM    8  C   UNL     1       5.721 -10.078  21.724  1.00  0.00     0.182 A 
HETATM    9  S   UNL     1       3.639  -6.816  21.633  1.00  0.00    -0.107 SA
HETATM   10  C   UNL     1       4.459  -5.491  21.713  1.00  0.00     0.121 A 
HETATM   11  C   UNL     1       5.861  -5.840  21.742  1.00  0.00    -0.022 A 
ENDROOT
BRANCH  11  12
HETATM   12  C   UNL     1       6.831  -4.674  21.823  1.00  0.00    -0.028 A 
HETATM   13  C   UNL     1       7.718  -4.438  22.849  1.00  0.00     0.012 A 
HETATM   14  C   UNL     1       8.524  -3.315  22.787  1.00  0.00     0.007 A 
HETATM   15  C   UNL     1       8.438  -2.421  21.737  1.00  0.00    -0.062 A 
HETATM   16  C   UNL     1       9.348  -1.196  21.707  1.00  0.00     0.048 C 
HETATM   17  C   UNL     1       7.543  -2.652  20.713  1.00  0.00     0.007 A 
HETATM   18  C   UNL     1       6.743  -3.771  20.771  1.00  0.00     0.012 A 
ENDBRANCH  11  12
BRANCH   3  19
HETATM   19  S   UNL     1       8.772  -7.501  21.768  1.00  0.00    -0.111 SA
BRANCH  19  20
HETATM   20  C   UNL     1       9.542  -8.215  23.244  1.00  0.00     0.091 C 
BRANCH  20  21
HETATM   21  C   UNL     1      10.057  -7.087  24.136  1.00  0.00     0.123 C 
BRANCH  21  22
HETATM   22  C   UNL     1      11.281  -6.370  23.572  1.00  0.00     0.173 C 
HETATM   23  O   UNL     1      12.173  -7.074  23.026  1.00  0.00    -0.648 OA
HETATM   24  O   UNL     1      11.409  -5.118  23.639  1.00  0.00    -0.648 OA
ENDBRANCH  21  22
ENDBRANCH  20  21
ENDBRANCH  19  20
ENDBRANCH   3  19
TORSDOF 5
ENDMDL
MODEL 7
REMARK VINA RESULT:    -7.136      2.944      3.670
REMARK INTER + INTRA:         -10.169
REMARK INTER:                  -9.780
REMARK INTRA:                  -0.389
REMARK UNBOUND:                -0.947
REMARK  5 active torsions:
REMARK  status: ('A' for Active; 'I' for Inactive)
REMARK    1  A    between atoms: C_3  and  S_13 
REMARK    2  A    between atoms: C_9  and  C_11 
REMARK    3  A    between atoms: C_11  and  C_12 
REMARK    4  A    between atoms: C_12  and  S_13 
REMARK    5  A    between atoms: C_17  and  C_18 
ROOT
HETATM    1  C   UNL     1       9.074  -1.556  21.485  1.00  0.00     0.084 A 
HETATM    2  C   UNL     1       9.312  -2.799  22.094  1.00  0.00     0.039 A 
HETATM    3  C   UNL     1      10.478  -3.098  22.690  1.00  0.00     0.084 A 
HETATM    4  N   UNL     1      11.464  -2.191  22.678  1.00  0.00    -0.346 N 
ATOM      5  HN  UNL     1      12.370  -2.405  23.095  1.00  0.00     0.167 HD
HETATM    6  N   UNL     1      10.037  -0.649  21.495  1.00  0.00    -0.346 N 
ATOM      7  HN  UNL     1       9.892   0.265  21.066  1.00  0.00     0.167 HD
HETATM    8  C   UNL     1      11.234  -0.956  22.091  1.00  0.00     0.182 A 
HETATM    9  S   UNL     1       7.586  -1.564  20.952  1.00  0.00    -0.107 SA
HETATM   10  C   UNL     1       7.010  -2.981  21.263  1.00  0.00     0.121 A 
HETATM   11  C   UNL     1       8.019  -3.719  21.986  1.00  0.00    -0.022 A 
ENDROOT
BRANCH  11  12
HETATM   12  C   UNL     1       7.645  -5.137  22.381  1.00  0.00    -0.028 A 
HETATM   13  C   UNL     1       6.709  -5.486  23.328  1.00  0.00     0.012 A 
HETATM   14  C   UNL     1       6.496  -6.828  23.592  1.00  0.00     0.007 A 
HETATM   15  C   UNL     1       7.217  -7.814  22.944  1.00  0.00    -0.062 A 
HETATM   16  C   UNL     1       6.949  -9.282  23.264  1.00  0.00     0.048 C 
HETATM   17  C   UNL     1       8.161  -7.464  22.001  1.00  0.00     0.007 A 
HETATM   18  C   UNL     1       8.371  -6.131  21.735  1.00  0.00     0.012 A 
ENDBRANCH  11  12
BRANCH   3  19
HETATM   19  S   UNL     1      10.831  -4.651  23.554  1.00  0.00    -0.111 SA
BRANCH  19  20
HETATM   20  C   UNL     1      12.625  -4.851  23.399  1.00  0.00     0.091 C 
BRANCH  20  21
HETATM   21  C   UNL     1      13.070  -6.052  24.232  1.00  0.00     0.123 C 
BRANCH  21  22
HETATM   22  C   UNL     1      13.645  -5.672  25.594  1.00  0.00     0.173 C 
HETATM   23  O   UNL     1      14.465  -4.716  25.638  1.00  0.00    -0.648 OA
HETATM   24  O   UNL     1      13.319  -6.282  26.648  1.00  0.00    -0.648 OA
ENDBRANCH  21  22
ENDBRANCH  20  21
ENDBRANCH  19  20
ENDBRANCH   3  19
TORSDOF 5
ENDMDL
MODEL 8
REMARK VINA RESULT:    -7.121      3.981      5.708
REMARK INTER + INTRA:         -10.149
REMARK INTER:                 -10.386
REMARK INTRA:                   0.236
REMARK UNBOUND:                -0.947
REMARK  5 active torsions:
REMARK  status: ('A' for Active; 'I' for Inactive)
REMARK    1  A    between atoms: C_3  and  S_13 
REMARK    2  A    between atoms: C_9  and  C_11 
REMARK    3  A    between atoms: C_11  and  C_12 
REMARK    4  A    between atoms: C_12  and  S_13 
REMARK    5  A    between atoms: C_17  and  C_18 
ROOT
HETATM    1  C   UNL     1       7.804  -1.983  21.349  1.00  0.00     0.084 A 
HETATM    2  C   UNL     1       7.654  -3.340  21.677  1.00  0.00     0.039 A 
HETATM    3  C   UNL     1       6.580  -4.057  21.303  1.00  0.00     0.084 A 
HETATM    4  N   UNL     1       5.601  -3.450  20.620  1.00  0.00    -0.346 N 
ATOM      5  HN  UNL     1       4.761  -3.963  20.353  1.00  0.00     0.167 HD
HETATM    6  N   UNL     1       6.851  -1.388  20.652  1.00  0.00    -0.346 N 
ATOM      7  HN  UNL     1       6.934  -0.405  20.394  1.00  0.00     0.167 HD
HETATM    8  C   UNL     1       5.746  -2.113  20.281  1.00  0.00     0.182 A 
HETATM    9  S   UNL     1       9.206  -1.510  21.909  1.00  0.00    -0.107 SA
HETATM   10  C   UNL     1       9.821  -2.734  22.657  1.00  0.00     0.121 A 
HETATM   11  C   UNL     1       8.921  -3.852  22.491  1.00  0.00    -0.022 A 
ENDROOT
BRANCH  11  12
HETATM   12  C   UNL     1       9.347  -5.149  23.156  1.00  0.00    -0.028 A 
HETATM   13  C   UNL     1       8.499  -6.123  23.631  1.00  0.00     0.012 A 
HETATM   14  C   UNL     1       9.043  -7.243  24.235  1.00  0.00     0.007 A 
HETATM   15  C   UNL     1      10.409  -7.388  24.391  1.00  0.00    -0.062 A 
HETATM   16  C   UNL     1      10.967  -8.640  25.061  1.00  0.00     0.048 C 
HETATM   17  C   UNL     1      11.259  -6.407  23.923  1.00  0.00     0.007 A 
HETATM   18  C   UNL     1      10.719  -5.295  23.319  1.00  0.00     0.012 A 
ENDBRANCH  11  12
BRANCH   3  19
HETATM   19  S   UNL     1       6.351  -5.824  21.630  1.00  0.00    -0.111 SA
BRANCH  19  20
HETATM   20  C   UNL     1       4.699  -6.188  20.981  1.00  0.00     0.091 C 
BRANCH  20  21
HETATM   21  C   UNL     1       4.101  -7.359  21.759  1.00  0.00     0.123 C 
BRANCH  21  22
HETATM   22  C   UNL     1       2.664  -7.687  21.362  1.00  0.00     0.173 C 
HETATM   23  O   UNL     1       2.402  -7.781  20.132  1.00  0.00    -0.648 OA
HETATM   24  O   UNL     1       1.760  -7.865  22.221  1.00  0.00    -0.648 OA
ENDBRANCH  21  22
ENDBRANCH  20  21
ENDBRANCH  19  20
ENDBRANCH   3  19
TORSDOF 5
ENDMDL
MODEL 9
REMARK VINA RESULT:    -7.107      3.166      5.103
REMARK INTER + INTRA:         -10.131
REMARK INTER:                  -9.876
REMARK INTRA:                  -0.255
REMARK UNBOUND:                -0.947
REMARK  5 active torsions:
REMARK  status: ('A' for Active; 'I' for Inactive)
REMARK    1  A    between atoms: C_3  and  S_13 
REMARK    2  A    between atoms: C_9  and  C_11 
REMARK    3  A    between atoms: C_11  and  C_12 
REMARK    4  A    between atoms: C_12  and  S_13 
REMARK    5  A    between atoms: C_17  and  C_18 
ROOT
HETATM    1  C   UNL     1      10.402  -2.422  22.493  1.00  0.00     0.084 A 
HETATM    2  C   UNL     1       9.730  -3.637  22.701  1.00  0.00     0.039 A 
HETATM    3  C   UNL     1      10.339  -4.717  23.221  1.00  0.00     0.084 A 
HETATM    4  N   UNL     1      11.642  -4.643  23.523  1.00  0.00    -0.346 N 
ATOM      5  HN  UNL     1      12.136  -5.458  23.888  1.00  0.00     0.167 HD
HETATM    6  N   UNL     1      11.682  -2.339  22.815  1.00  0.00    -0.346 N 
ATOM      7  HN  UNL     1      12.195  -1.467  22.681  1.00  0.00     0.167 HD
HETATM    8  C   UNL     1      12.310  -3.443  23.333  1.00  0.00     0.182 A 
HETATM    9  S   UNL     1       9.348  -1.387  21.927  1.00  0.00    -0.107 SA
HETATM   10  C   UNL     1       8.004  -2.163  21.769  1.00  0.00     0.121 A 
HETATM   11  C   UNL     1       8.206  -3.504  22.269  1.00  0.00    -0.022 A 
ENDROOT
BRANCH  11  12
HETATM   12  C   UNL     1       7.000  -4.425  22.197  1.00  0.00    -0.028 A 
HETATM   13  C   UNL     1       6.705  -5.429  23.090  1.00  0.00     0.012 A 
HETATM   14  C   UNL     1       5.576  -6.201  22.875  1.00  0.00     0.007 A 
HETATM   15  C   UNL     1       4.761  -5.998  21.777  1.00  0.00    -0.062 A 
HETATM   16  C   UNL     1       3.524  -6.870  21.579  1.00  0.00     0.048 C 
HETATM   17  C   UNL     1       5.062  -4.996  20.877  1.00  0.00     0.007 A 
HETATM   18  C   UNL     1       6.182  -4.226  21.092  1.00  0.00     0.012 A 
ENDBRANCH  11  12
BRANCH   3  19
HETATM   19  S   UNL     1       9.522  -6.292  23.581  1.00  0.00    -0.111 SA
BRANCH  19  20
HETATM   20  C   UNL     1      10.887  -7.442  23.896  1.00  0.00     0.091 C 
BRANCH  20  21
HETATM   21  C   UNL     1      11.170  -8.243  22.627  1.00  0.00     0.123 C 
BRANCH  21  22
HETATM   22  C   UNL     1      12.549  -7.974  22.028  1.00  0.00     0.173 C 
HETATM   23  O   UNL     1      12.995  -6.796  22.089  1.00  0.00    -0.648 OA
HETATM   24  O   UNL     1      13.231  -8.887  21.491  1.00  0.00    -0.648 OA
ENDBRANCH  21  22
ENDBRANCH  20  21
ENDBRANCH  19  20
ENDBRANCH   3  19
TORSDOF 5
ENDMDL
MODEL 10
REMARK VINA RESULT:    -7.068      4.069      5.831
REMARK INTER + INTRA:         -10.080
REMARK INTER:                  -9.331
REMARK INTRA:                  -0.749
REMARK UNBOUND:                -0.947
REMARK  5 active torsions:
REMARK  status: ('A' for Active; 'I' for Inactive)
REMARK    1  A    between atoms: C_3  and  S_13 
REMARK    2  A    between atoms: C_9  and  C_11 
REMARK    3  A    between atoms: C_11  and  C_12 
REMARK    4  A    between atoms: C_12  and  S_13 
REMARK    5  A    between atoms: C_17  and  C_18 
ROOT
HETATM    1  C   UNL     1       5.185  -4.869  21.250  1.00  0.00     0.084 A 
HETATM    2  C   UNL     1       6.160  -5.493  22.045  1.00  0.00     0.039 A 
HETATM    3  C   UNL     1       5.914  -6.622  22.733  1.00  0.00     0.084 A 
HETATM    4  N   UNL     1       4.686  -7.155  22.686  1.00  0.00    -0.346 N 
ATOM      5  HN  UNL     1       4.464  -7.992  23.225  1.00  0.00     0.167 HD
HETATM    6  N   UNL     1       3.979  -5.408  21.181  1.00  0.00    -0.346 N 
ATOM      7  HN  UNL     1       3.253  -4.980  20.607  1.00  0.00     0.167 HD
HETATM    8  C   UNL     1       3.721  -6.552  21.894  1.00  0.00     0.182 A 
HETATM    9  S   UNL     1       5.863  -3.616  20.562  1.00  0.00    -0.107 SA
HETATM   10  C   UNL     1       7.325  -3.549  21.104  1.00  0.00     0.121 A 
HETATM   11  C   UNL     1       7.532  -4.693  21.962  1.00  0.00    -0.022 A 
ENDROOT
BRANCH  11  12
HETATM   12  C   UNL     1       8.908  -4.806  22.594  1.00  0.00    -0.028 A 
HETATM   13  C   UNL     1       9.670  -5.950  22.659  1.00  0.00     0.012 A 
HETATM   14  C   UNL     1      10.900  -5.897  23.291  1.00  0.00     0.007 A 
HETATM   15  C   UNL     1      11.363  -4.731  23.873  1.00  0.00    -0.062 A 
HETATM   16  C   UNL     1      12.726  -4.715  24.557  1.00  0.00     0.048 C 
HETATM   17  C   UNL     1      10.596  -3.586  23.815  1.00  0.00     0.007 A 
HETATM   18  C   UNL     1       9.374  -3.637  23.184  1.00  0.00     0.012 A 
ENDBRANCH  11  12
BRANCH   3  19
HETATM   19  S   UNL     1       7.139  -7.519  23.720  1.00  0.00    -0.111 SA
BRANCH  19  20
HETATM   20  C   UNL     1       7.295  -9.122  22.889  1.00  0.00     0.091 C 
BRANCH  20  21
HETATM   21  C   UNL     1       7.695  -8.895  21.433  1.00  0.00     0.123 C 
BRANCH  21  22
HETATM   22  C   UNL     1       6.764  -9.573  20.430  1.00  0.00     0.173 C 
HETATM   23  O   UNL     1       5.567  -9.181  20.383  1.00  0.00    -0.648 OA
HETATM   24  O   UNL     1       7.165 -10.491  19.666  1.00  0.00    -0.648 OA
ENDBRANCH  21  22
ENDBRANCH  20  21
ENDBRANCH  19  20
ENDBRANCH   3  19
TORSDOF 5
ENDMDL
MODEL 11
REMARK VINA RESULT:    -7.044      4.163      6.293
REMARK INTER + INTRA:         -10.049
REMARK INTER:                  -9.368
REMARK INTRA:                  -0.681
REMARK UNBOUND:                -0.947
REMARK  5 active torsions:
REMARK  status: ('A' for Active; 'I' for Inactive)
REMARK    1  A    between atoms: C_3  and  S_13 
REMARK    2  A    between atoms: C_9  and  C_11 
REMARK    3  A    between atoms: C_11  and  C_12 
REMARK    4  A    between atoms: C_12  and  S_13 
REMARK    5  A    between atoms: C_17  and  C_18 
ROOT
HETATM    1  C   UNL     1       4.909  -7.639  21.772  1.00  0.00     0.084 A 
HETATM    2  C   UNL     1       6.204  -7.106  21.869  1.00  0.00     0.039 A 
HETATM    3  C   UNL     1       7.293  -7.879  22.020  1.00  0.00     0.084 A 
HETATM    4  N   UNL     1       7.136  -9.206  22.115  1.00  0.00    -0.346 N 
ATOM      5  HN  UNL     1       7.943  -9.813  22.264  1.00  0.00     0.167 HD
HETATM    6  N   UNL     1       4.755  -8.951  21.839  1.00  0.00    -0.346 N 
ATOM      7  HN  UNL     1       3.827  -9.369  21.767  1.00  0.00     0.167 HD
HETATM    8  C   UNL     1       5.863  -9.743  22.009  1.00  0.00     0.182 A 
HETATM    9  S   UNL     1       3.912  -6.433  21.546  1.00  0.00    -0.107 SA
HETATM   10  C   UNL     1       4.773  -5.132  21.589  1.00  0.00     0.121 A 
HETATM   11  C   UNL     1       6.156  -5.521  21.739  1.00  0.00    -0.022 A 
ENDROOT
BRANCH  11  12
HETATM   12  C   UNL     1       7.160  -4.384  21.805  1.00  0.00    -0.028 A 
HETATM   13  C   UNL     1       8.055  -4.162  22.827  1.00  0.00     0.012 A 
HETATM   14  C   UNL     1       8.894  -3.064  22.751  1.00  0.00     0.007 A 
HETATM   15  C   UNL     1       8.833  -2.181  21.689  1.00  0.00    -0.062 A 
HETATM   16  C   UNL     1       9.778  -0.984  21.643  1.00  0.00     0.048 C 
HETATM   17  C   UNL     1       7.930  -2.398  20.669  1.00  0.00     0.007 A 
HETATM   18  C   UNL     1       7.098  -3.491  20.742  1.00  0.00     0.012 A 
ENDBRANCH  11  12
BRANCH   3  19
HETATM   19  S   UNL     1       8.996  -7.267  22.082  1.00  0.00    -0.111 SA
BRANCH  19  20
HETATM   20  C   UNL     1       9.457  -7.403  23.829  1.00  0.00     0.091 C 
BRANCH  20  21
HETATM   21  C   UNL     1      10.574  -8.435  23.975  1.00  0.00     0.123 C 
BRANCH  21  22
HETATM   22  C   UNL     1      10.103  -9.770  24.546  1.00  0.00     0.173 C 
HETATM   23  O   UNL     1       8.987 -10.212  24.160  1.00  0.00    -0.648 OA
HETATM   24  O   UNL     1      10.796 -10.422  25.372  1.00  0.00    -0.648 OA
ENDBRANCH  21  22
ENDBRANCH  20  21
ENDBRANCH  19  20
ENDBRANCH   3  19
TORSDOF 5
ENDMDL
MODEL 12
REMARK VINA RESULT:    -6.958      3.608      5.391
REMARK INTER + INTRA:          -9.938
REMARK INTER:                 -10.032
REMARK INTRA:                   0.095
REMARK UNBOUND:                -0.947
REMARK  5 active torsions:
REMARK  status: ('A' for Active; 'I' for Inactive)
REMARK    1  A    between atoms: C_3  and  S_13 
REMARK    2  A    between atoms: C_9  and  C_11 
REMARK    3  A    between atoms: C_11  and  C_12 
REMARK    4  A    between atoms: C_12  and  S_13 
REMARK    5  A    between atoms: C_17  and  C_18 
ROOT
HETATM    1  C   UNL     1       8.138  -1.826  21.398  1.00  0.00     0.084 A 
HETATM    2  C   UNL     1       8.392  -3.144  21.810  1.00  0.00     0.039 A 
HETATM    3  C   UNL     1       7.514  -4.143  21.613  1.00  0.00     0.084 A 
HETATM    4  N   UNL     1       6.340  -3.868  21.030  1.00  0.00    -0.346 N 
ATOM      5  HN  UNL     1       5.643  -4.601  20.898  1.00  0.00     0.167 HD
HETATM    6  N   UNL     1       6.990  -1.557  20.798  1.00  0.00    -0.346 N 
ATOM      7  HN  UNL     1       6.779  -0.610  20.482  1.00  0.00     0.167 HD
HETATM    8  C   UNL     1       6.085  -2.572  20.608  1.00  0.00     0.182 A 
HETATM    9  S   UNL     1       9.415  -0.962  21.749  1.00  0.00    -0.107 SA
HETATM   10  C   UNL     1      10.412  -1.919  22.474  1.00  0.00     0.121 A 
HETATM   11  C   UNL     1       9.831  -3.242  22.481  1.00  0.00    -0.022 A 
ENDROOT
BRANCH  11  12
HETATM   12  C   UNL     1      10.658  -4.325  23.151  1.00  0.00    -0.028 A 
HETATM   13  C   UNL     1      10.247  -5.616  23.388  1.00  0.00     0.012 A 
HETATM   14  C   UNL     1      11.112  -6.484  24.032  1.00  0.00     0.007 A 
HETATM   15  C   UNL     1      12.361  -6.072  24.460  1.00  0.00    -0.062 A 
HETATM   16  C   UNL     1      13.285  -7.061  25.164  1.00  0.00     0.048 C 
HETATM   17  C   UNL     1      12.770  -4.775  24.230  1.00  0.00     0.007 A 
HETATM   18  C   UNL     1      11.912  -3.913  23.586  1.00  0.00     0.012 A 
ENDBRANCH  11  12
BRANCH   3  19
HETATM   19  S   UNL     1       7.802  -5.875  22.054  1.00  0.00    -0.111 SA
BRANCH  19  20
HETATM   20  C   UNL     1       6.577  -6.217  23.345  1.00  0.00     0.091 C 
BRANCH  20  21
HETATM   21  C   UNL     1       5.532  -7.188  22.801  1.00  0.00     0.123 C 
BRANCH  21  22
HETATM   22  C   UNL     1       4.167  -6.547  22.560  1.00  0.00     0.173 C 
HETATM   23  O   UNL     1       3.207  -6.923  23.286  1.00  0.00    -0.648 OA
HETATM   24  O   UNL     1       3.991  -5.669  21.674  1.00  0.00    -0.648 OA
ENDBRANCH  21  22
ENDBRANCH  20  21
ENDBRANCH  19  20
ENDBRANCH   3  19
TORSDOF 5
ENDMDL
MODEL 13
REMARK VINA RESULT:    -6.944      3.612      5.792
REMARK INTER + INTRA:          -9.921
REMARK INTER:                  -9.952
REMARK INTRA:                   0.031
REMARK UNBOUND:                -0.947
REMARK  5 active torsions:
REMARK  status: ('A' for Active; 'I' for Inactive)
REMARK    1  A    between atoms: C_3  and  S_13 
REMARK    2  A    between atoms: C_9  and  C_11 
REMARK    3  A    between atoms: C_11  and  C_12 
REMARK    4  A    between atoms: C_12  and  S_13 
REMARK    5  A    between atoms: C_17  and  C_18 
ROOT
HETATM    1  C   UNL     1       7.064  -7.553  23.582  1.00  0.00     0.084 A 
HETATM    2  C   UNL     1       8.277  -6.852  23.490  1.00  0.00     0.039 A 
HETATM    3  C   UNL     1       9.459  -7.412  23.801  1.00  0.00     0.084 A 
HETATM    4  N   UNL     1       9.480  -8.676  24.245  1.00  0.00    -0.346 N 
ATOM      5  HN  UNL     1      10.360  -9.114  24.518  1.00  0.00     0.167 HD
HETATM    6  N   UNL     1       7.085  -8.810  23.996  1.00  0.00    -0.346 N 
ATOM      7  HN  UNL     1       6.221  -9.346  24.067  1.00  0.00     0.167 HD
HETATM    8  C   UNL     1       8.289  -9.380  24.327  1.00  0.00     0.182 A 
HETATM    9  S   UNL     1       5.916  -6.587  23.084  1.00  0.00    -0.107 SA
HETATM   10  C   UNL     1       6.597  -5.221  22.755  1.00  0.00     0.121 A 
HETATM   11  C   UNL     1       8.020  -5.377  22.953  1.00  0.00    -0.022 A 
ENDROOT
BRANCH  11  12
HETATM   12  C   UNL     1       8.864  -4.144  22.684  1.00  0.00    -0.028 A 
HETATM   13  C   UNL     1      10.003  -3.787  23.369  1.00  0.00     0.012 A 
HETATM   14  C   UNL     1      10.652  -2.616  23.017  1.00  0.00     0.007 A 
HETATM   15  C   UNL     1      10.168  -1.794  22.017  1.00  0.00    -0.062 A 
HETATM   16  C   UNL     1      10.916  -0.513  21.659  1.00  0.00     0.048 C 
HETATM   17  C   UNL     1       9.022  -2.148  21.336  1.00  0.00     0.007 A 
HETATM   18  C   UNL     1       8.378  -3.314  21.681  1.00  0.00     0.012 A 
ENDBRANCH  11  12
BRANCH   3  19
HETATM   19  S   UNL     1      11.066  -6.593  23.640  1.00  0.00    -0.111 SA
BRANCH  19  20
HETATM   20  C   UNL     1      12.263  -7.855  24.150  1.00  0.00     0.091 C 
BRANCH  20  21
HETATM   21  C   UNL     1      13.614  -7.189  24.409  1.00  0.00     0.123 C 
BRANCH  21  22
HETATM   22  C   UNL     1      13.539  -6.005  25.370  1.00  0.00     0.173 C 
HETATM   23  O   UNL     1      13.311  -6.251  26.586  1.00  0.00    -0.648 OA
HETATM   24  O   UNL     1      13.700  -4.819  24.979  1.00  0.00    -0.648 OA
ENDBRANCH  21  22
ENDBRANCH  20  21
ENDBRANCH  19  20
ENDBRANCH   3  19
TORSDOF 5
ENDMDL
MODEL 14
REMARK VINA RESULT:    -6.940      4.782      7.810
REMARK INTER + INTRA:          -9.915
REMARK INTER:                  -9.508
REMARK INTRA:                  -0.407
REMARK UNBOUND:                -0.947
REMARK  5 active torsions:
REMARK  status: ('A' for Active; 'I' for Inactive)
REMARK    1  A    between atoms: C_3  and  S_13 
REMARK    2  A    between atoms: C_9  and  C_11 
REMARK    3  A    between atoms: C_11  and  C_12 
REMARK    4  A    between atoms: C_12  and  S_13 
REMARK    5  A    between atoms: C_17  and  C_18 
ROOT
HETATM    1  C   UNL     1      13.163  -7.281  24.621  1.00  0.00     0.084 A 
HETATM    2  C   UNL     1      12.051  -6.845  23.883  1.00  0.00     0.039 A 
HETATM    3  C   UNL     1      11.236  -7.695  23.236  1.00  0.00     0.084 A 
HETATM    4  N   UNL     1      11.510  -9.006  23.268  1.00  0.00    -0.346 N 
ATOM      5  HN  UNL     1      10.927  -9.670  22.759  1.00  0.00     0.167 HD
HETATM    6  N   UNL     1      13.420  -8.578  24.676  1.00  0.00    -0.346 N 
ATOM      7  HN  UNL     1      14.218  -8.925  25.209  1.00  0.00     0.167 HD
HETATM    8  C   UNL     1      12.598  -9.448  24.005  1.00  0.00     0.182 A 
HETATM    9  S   UNL     1      13.831  -6.006  25.275  1.00  0.00    -0.107 SA
HETATM   10  C   UNL     1      13.016  -4.772  24.775  1.00  0.00     0.121 A 
HETATM   11  C   UNL     1      11.919  -5.262  23.973  1.00  0.00    -0.022 A 
ENDROOT
BRANCH  11  12
HETATM   12  C   UNL     1      11.003  -4.202  23.388  1.00  0.00    -0.028 A 
HETATM   13  C   UNL     1       9.628  -4.256  23.361  1.00  0.00     0.012 A 
HETATM   14  C   UNL     1       8.932  -3.217  22.770  1.00  0.00     0.007 A 
HETATM   15  C   UNL     1       9.587  -2.147  22.189  1.00  0.00    -0.062 A 
HETATM   16  C   UNL     1       8.780  -1.020  21.550  1.00  0.00     0.048 C 
HETATM   17  C   UNL     1      10.965  -2.096  22.208  1.00  0.00     0.007 A 
HETATM   18  C   UNL     1      11.659  -3.127  22.799  1.00  0.00     0.012 A 
ENDBRANCH  11  12
BRANCH   3  19
HETATM   19  S   UNL     1       9.748  -7.211  22.324  1.00  0.00    -0.111 SA
BRANCH  19  20
HETATM   20  C   UNL     1       8.652  -8.648  22.462  1.00  0.00     0.091 C 
BRANCH  20  21
HETATM   21  C   UNL     1       8.539  -9.325  21.098  1.00  0.00     0.123 C 
BRANCH  21  22
HETATM   22  C   UNL     1       9.362 -10.606  20.980  1.00  0.00     0.173 C 
HETATM   23  O   UNL     1      10.589 -10.492  20.714  1.00  0.00    -0.648 OA
HETATM   24  O   UNL     1       8.849 -11.745  21.144  1.00  0.00    -0.648 OA
ENDBRANCH  21  22
ENDBRANCH  20  21
ENDBRANCH  19  20
ENDBRANCH   3  19
TORSDOF 5
ENDMDL
MODEL 15
REMARK VINA RESULT:    -6.906      2.302      4.278
REMARK INTER + INTRA:          -9.871
REMARK INTER:                  -8.859
REMARK INTRA:                  -1.012
REMARK UNBOUND:                -0.947
REMARK  5 active torsions:
REMARK  status: ('A' for Active; 'I' for Inactive)
REMARK    1  A    between atoms: C_3  and  S_13 
REMARK    2  A    between atoms: C_9  and  C_11 
REMARK    3  A    between atoms: C_11  and  C_12 
REMARK    4  A    between atoms: C_12  and  S_13 
REMARK    5  A    between atoms: C_17  and  C_18 
ROOT
HETATM    1  C   UNL     1      11.557  -3.713  23.427  1.00  0.00     0.084 A 
HETATM    2  C   UNL     1      10.302  -4.329  23.298  1.00  0.00     0.039 A 
HETATM    3  C   UNL     1       9.172  -3.628  23.100  1.00  0.00     0.084 A 
HETATM    4  N   UNL     1       9.239  -2.291  23.055  1.00  0.00    -0.346 N 
ATOM      5  HN  UNL     1       8.392  -1.735  22.938  1.00  0.00     0.167 HD
HETATM    6  N   UNL     1      11.629  -2.394  23.357  1.00  0.00    -0.346 N 
ATOM      7  HN  UNL     1      12.527  -1.918  23.441  1.00  0.00     0.167 HD
HETATM    8  C   UNL     1      10.475  -1.675  23.169  1.00  0.00     0.182 A 
HETATM    9  S   UNL     1      12.636  -4.858  23.589  1.00  0.00    -0.107 SA
HETATM   10  C   UNL     1      11.851  -6.207  23.606  1.00  0.00     0.121 A 
HETATM   11  C   UNL     1      10.454  -5.910  23.390  1.00  0.00    -0.022 A 
ENDROOT
BRANCH  11  12
HETATM   12  C   UNL     1       9.518  -7.105  23.375  1.00  0.00    -0.028 A 
HETATM   13  C   UNL     1       8.886  -7.643  24.472  1.00  0.00     0.012 A 
HETATM   14  C   UNL     1       8.077  -8.752  24.299  1.00  0.00     0.007 A 
HETATM   15  C   UNL     1       7.913  -9.339  23.058  1.00  0.00    -0.062 A 
HETATM   16  C   UNL     1       7.009 -10.560  22.910  1.00  0.00     0.048 C 
HETATM   17  C   UNL     1       8.553  -8.805  21.959  1.00  0.00     0.007 A 
HETATM   18  C   UNL     1       9.355  -7.700  22.129  1.00  0.00     0.012 A 
ENDBRANCH  11  12
BRANCH   3  19
HETATM   19  S   UNL     1       7.532  -4.357  22.856  1.00  0.00    -0.111 SA
BRANCH  19  20
HETATM   20  C   UNL     1       7.330  -4.409  21.056  1.00  0.00     0.091 C 
BRANCH  20  21
HETATM   21  C   UNL     1       6.252  -3.410  20.643  1.00  0.00     0.123 C 
BRANCH  21  22
HETATM   22  C   UNL     1       6.806  -2.048  20.227  1.00  0.00     0.173 C 
HETATM   23  O   UNL     1       7.187  -1.268  21.141  1.00  0.00    -0.648 OA
HETATM   24  O   UNL     1       6.888  -1.704  19.019  1.00  0.00    -0.648 OA
ENDBRANCH  21  22
ENDBRANCH  20  21
ENDBRANCH  19  20
ENDBRANCH   3  19
TORSDOF 5
ENDMDL
MODEL 16
REMARK VINA RESULT:    -6.887      3.495      5.894
REMARK INTER + INTRA:          -9.847
REMARK INTER:                 -10.169
REMARK INTRA:                   0.322
REMARK UNBOUND:                -0.947
REMARK  5 active torsions:
REMARK  status: ('A' for Active; 'I' for Inactive)
REMARK    1  A    between atoms: C_3  and  S_13 
REMARK    2  A    between atoms: C_9  and  C_11 
REMARK    3  A    between atoms: C_11  and  C_12 
REMARK    4  A    between atoms: C_12  and  S_13 
REMARK    5  A    between atoms: C_17  and  C_18 
ROOT
HETATM    1  C   UNL     1       5.020  -5.495  21.545  1.00  0.00     0.084 A 
HETATM    2  C   UNL     1       6.302  -5.392  22.107  1.00  0.00     0.039 A 
HETATM    3  C   UNL     1       6.825  -6.351  22.890  1.00  0.00     0.084 A 
HETATM    4  N   UNL     1       6.085  -7.432  23.172  1.00  0.00    -0.346 N 
ATOM      5  HN  UNL     1       6.446  -8.158  23.791  1.00  0.00     0.167 HD
HETATM    6  N   UNL     1       4.298  -6.573  21.800  1.00  0.00    -0.346 N 
ATOM      7  HN  UNL     1       3.365  -6.679  21.401  1.00  0.00     0.167 HD
HETATM    8  C   UNL     1       4.823  -7.548  22.612  1.00  0.00     0.182 A 
HETATM    9  S   UNL     1       4.787  -4.212  20.650  1.00  0.00    -0.107 SA
HETATM   10  C   UNL     1       6.059  -3.321  20.813  1.00  0.00     0.121 A 
HETATM   11  C   UNL     1       6.995  -4.034  21.650  1.00  0.00    -0.022 A 
ENDROOT
BRANCH  11  12
HETATM   12  C   UNL     1       8.307  -3.323  21.931  1.00  0.00    -0.028 A 
HETATM   13  C   UNL     1       9.334  -3.812  22.705  1.00  0.00     0.012 A 
HETATM   14  C   UNL     1      10.463  -3.030  22.885  1.00  0.00     0.007 A 
HETATM   15  C   UNL     1      10.564  -1.770  22.326  1.00  0.00    -0.062 A 
HETATM   16  C   UNL     1      11.827  -0.942  22.547  1.00  0.00     0.048 C 
HETATM   17  C   UNL     1       9.531  -1.276  21.558  1.00  0.00     0.007 A 
HETATM   18  C   UNL     1       8.410  -2.054  21.375  1.00  0.00     0.012 A 
ENDBRANCH  11  12
BRANCH   3  19
HETATM   19  S   UNL     1       8.494  -6.318  23.592  1.00  0.00    -0.111 SA
BRANCH  19  20
HETATM   20  C   UNL     1       9.195  -7.930  23.154  1.00  0.00     0.091 C 
BRANCH  20  21
HETATM   21  C   UNL     1       9.476  -7.964  21.653  1.00  0.00     0.123 C 
BRANCH  21  22
HETATM   22  C   UNL     1       9.999  -9.311  21.158  1.00  0.00     0.173 C 
HETATM   23  O   UNL     1       9.203 -10.049  20.517  1.00  0.00    -0.648 OA
HETATM   24  O   UNL     1      11.183  -9.684  21.372  1.00  0.00    -0.648 OA
ENDBRANCH  21  22
ENDBRANCH  20  21
ENDBRANCH  19  20
ENDBRANCH   3  19
TORSDOF 5
ENDMDL
MODEL 17
REMARK VINA RESULT:    -6.822      2.848      3.589
REMARK INTER + INTRA:          -9.763
REMARK INTER:                  -8.905
REMARK INTRA:                  -0.858
REMARK UNBOUND:                -0.947
REMARK  5 active torsions:
REMARK  status: ('A' for Active; 'I' for Inactive)
REMARK    1  A    between atoms: C_3  and  S_13 
REMARK    2  A    between atoms: C_9  and  C_11 
REMARK    3  A    between atoms: C_11  and  C_12 
REMARK    4  A    between atoms: C_12  and  S_13 
REMARK    5  A    between atoms: C_17  and  C_18 
ROOT
HETATM    1  C   UNL     1       7.949  -6.164  22.180  1.00  0.00     0.084 A 
HETATM    2  C   UNL     1       9.185  -5.823  22.751  1.00  0.00     0.039 A 
HETATM    3  C   UNL     1       9.488  -4.564  23.114  1.00  0.00     0.084 A 
HETATM    4  N   UNL     1       8.591  -3.593  22.895  1.00  0.00    -0.346 N 
ATOM      5  HN  UNL     1       8.809  -2.625  23.132  1.00  0.00     0.167 HD
HETATM    6  N   UNL     1       7.052  -5.211  21.987  1.00  0.00    -0.346 N 
ATOM      7  HN  UNL     1       6.143  -5.430  21.579  1.00  0.00     0.167 HD
HETATM    8  C   UNL     1       7.363  -3.923  22.343  1.00  0.00     0.182 A 
HETATM    9  S   UNL     1       7.948  -7.728  21.946  1.00  0.00    -0.107 SA
HETATM   10  C   UNL     1       9.354  -8.244  22.387  1.00  0.00     0.121 A 
HETATM   11  C   UNL     1      10.093  -7.119  22.912  1.00  0.00    -0.022 A 
ENDROOT
BRANCH  11  12
HETATM   12  C   UNL     1      11.501  -7.419  23.395  1.00  0.00    -0.028 A 
HETATM   13  C   UNL     1      11.904  -7.469  24.710  1.00  0.00     0.012 A 
HETATM   14  C   UNL     1      13.233  -7.735  24.990  1.00  0.00     0.007 A 
HETATM   15  C   UNL     1      14.159  -7.926  23.982  1.00  0.00    -0.062 A 
HETATM   16  C   UNL     1      15.614  -8.220  24.335  1.00  0.00     0.048 C 
HETATM   17  C   UNL     1      13.757  -7.868  22.664  1.00  0.00     0.007 A 
HETATM   18  C   UNL     1      12.435  -7.608  22.384  1.00  0.00     0.012 A 
ENDBRANCH  11  12
BRANCH   3  19
HETATM   19  S   UNL     1      11.031  -4.063  23.919  1.00  0.00    -0.111 SA
BRANCH  19  20
HETATM   20  C   UNL     1      11.886  -3.071  22.666  1.00  0.00     0.091 C 
BRANCH  20  21
HETATM   21  C   UNL     1      11.596  -1.592  22.914  1.00  0.00     0.123 C 
BRANCH  21  22
HETATM   22  C   UNL     1      10.922  -0.893  21.736  1.00  0.00     0.173 C 
HETATM   23  O   UNL     1      11.648  -0.206  20.968  1.00  0.00    -0.648 OA
HETATM   24  O   UNL     1       9.684  -0.994  21.522  1.00  0.00    -0.648 OA
ENDBRANCH  21  22
ENDBRANCH  20  21
ENDBRANCH  19  20
ENDBRANCH   3  19
TORSDOF 5
ENDMDL
MODEL 18
REMARK VINA RESULT:    -6.735      3.753      5.949
REMARK INTER + INTRA:          -9.650
REMARK INTER:                  -9.203
REMARK INTRA:                  -0.447
REMARK UNBOUND:                -0.947
REMARK  5 active torsions:
REMARK  status: ('A' for Active; 'I' for Inactive)
REMARK    1  A    between atoms: C_3  and  S_13 
REMARK    2  A    between atoms: C_9  and  C_11 
REMARK    3  A    between atoms: C_11  and  C_12 
REMARK    4  A    between atoms: C_12  and  S_13 
REMARK    5  A    between atoms: C_17  and  C_18 
ROOT
HETATM    1  C   UNL     1      11.157  -3.649  23.574  1.00  0.00     0.084 A 
HETATM    2  C   UNL     1      10.269  -4.689  23.257  1.00  0.00     0.039 A 
HETATM    3  C   UNL     1      10.623  -5.984  23.321  1.00  0.00     0.084 A 
HETATM    4  N   UNL     1      11.878  -6.296  23.669  1.00  0.00    -0.346 N 
ATOM      5  HN  UNL     1      12.181  -7.270  23.693  1.00  0.00     0.167 HD
HETATM    6  N   UNL     1      12.390  -3.956  23.943  1.00  0.00    -0.346 N 
ATOM      7  HN  UNL     1      13.056  -3.222  24.184  1.00  0.00     0.167 HD
HETATM    8  C   UNL     1      12.759  -5.277  23.995  1.00  0.00     0.182 A 
HETATM    9  S   UNL     1      10.366  -2.287  23.436  1.00  0.00    -0.107 SA
HETATM   10  C   UNL     1       8.933  -2.655  22.938  1.00  0.00     0.121 A 
HETATM   11  C   UNL     1       8.846  -4.095  22.867  1.00  0.00    -0.022 A 
ENDROOT
BRANCH  11  12
HETATM   12  C   UNL     1       7.515  -4.655  22.395  1.00  0.00    -0.028 A 
HETATM   13  C   UNL     1       6.836  -4.263  21.264  1.00  0.00     0.012 A 
HETATM   14  C   UNL     1       5.618  -4.855  20.979  1.00  0.00     0.007 A 
HETATM   15  C   UNL     1       5.065  -5.807  21.816  1.00  0.00    -0.062 A 
HETATM   16  C   UNL     1       3.720  -6.436  21.464  1.00  0.00     0.048 C 
HETATM   17  C   UNL     1       5.741  -6.193  22.954  1.00  0.00     0.007 A 
HETATM   18  C   UNL     1       6.954  -5.608  23.236  1.00  0.00     0.012 A 
ENDBRANCH  11  12
BRANCH   3  19
HETATM   19  S   UNL     1       9.512  -7.377  22.996  1.00  0.00    -0.111 SA
BRANCH  19  20
HETATM   20  C   UNL     1      10.017  -7.979  21.363  1.00  0.00     0.091 C 
BRANCH  20  21
HETATM   21  C   UNL     1      10.575  -9.394  21.500  1.00  0.00     0.123 C 
BRANCH  21  22
HETATM   22  C   UNL     1      12.045  -9.435  21.910  1.00  0.00     0.173 C 
HETATM   23  O   UNL     1      12.472 -10.488  22.457  1.00  0.00    -0.648 OA
HETATM   24  O   UNL     1      12.819  -8.461  21.713  1.00  0.00    -0.648 OA
ENDBRANCH  21  22
ENDBRANCH  20  21
ENDBRANCH  19  20
ENDBRANCH   3  19
TORSDOF 5
ENDMDL
MODEL 19
REMARK VINA RESULT:    -6.685      3.635      5.463
REMARK INTER + INTRA:          -9.586
REMARK INTER:                  -9.060
REMARK INTRA:                  -0.525
REMARK UNBOUND:                -0.947
REMARK  5 active torsions:
REMARK  status: ('A' for Active; 'I' for Inactive)
REMARK    1  A    between atoms: C_3  and  S_13 
REMARK    2  A    between atoms: C_9  and  C_11 
REMARK    3  A    between atoms: C_11  and  C_12 
REMARK    4  A    between atoms: C_12  and  S_13 
REMARK    5  A    between atoms: C_17  and  C_18 
ROOT
HETATM    1  C   UNL     1       5.437  -4.752  21.297  1.00  0.00     0.084 A 
HETATM    2  C   UNL     1       6.400  -5.354  22.123  1.00  0.00     0.039 A 
HETATM    3  C   UNL     1       6.136  -6.447  22.860  1.00  0.00     0.084 A 
HETATM    4  N   UNL     1       4.900  -6.964  22.832  1.00  0.00    -0.346 N 
ATOM      5  HN  UNL     1       4.665  -7.773  23.407  1.00  0.00     0.167 HD
HETATM    6  N   UNL     1       4.223  -5.276  21.249  1.00  0.00    -0.346 N 
ATOM      7  HN  UNL     1       3.504  -4.864  20.654  1.00  0.00     0.167 HD
HETATM    8  C   UNL     1       3.946  -6.384  22.011  1.00  0.00     0.182 A 
HETATM    9  S   UNL     1       6.134  -3.541  20.557  1.00  0.00    -0.107 SA
HETATM   10  C   UNL     1       7.595  -3.471  21.100  1.00  0.00     0.121 A 
HETATM   11  C   UNL     1       7.784  -4.578  22.008  1.00  0.00    -0.022 A 
ENDROOT
BRANCH  11  12
HETATM   12  C   UNL     1       9.156  -4.682  22.650  1.00  0.00    -0.028 A 
HETATM   13  C   UNL     1       9.890  -5.837  22.791  1.00  0.00     0.012 A 
HETATM   14  C   UNL     1      11.121  -5.772  23.420  1.00  0.00     0.007 A 
HETATM   15  C   UNL     1      11.611  -4.582  23.926  1.00  0.00    -0.062 A 
HETATM   16  C   UNL     1      12.975  -4.554  24.611  1.00  0.00     0.048 C 
HETATM   17  C   UNL     1      10.872  -3.425  23.792  1.00  0.00     0.007 A 
HETATM   18  C   UNL     1       9.650  -3.488  23.163  1.00  0.00     0.012 A 
ENDBRANCH  11  12
BRANCH   3  19
HETATM   19  S   UNL     1       7.345  -7.316  23.890  1.00  0.00    -0.111 SA
BRANCH  19  20
HETATM   20  C   UNL     1       7.463  -8.965  23.146  1.00  0.00     0.091 C 
BRANCH  20  21
HETATM   21  C   UNL     1       7.952  -8.831  21.705  1.00  0.00     0.123 C 
BRANCH  21  22
HETATM   22  C   UNL     1       9.328  -9.447  21.466  1.00  0.00     0.173 C 
HETATM   23  O   UNL     1       9.509 -10.077  20.389  1.00  0.00    -0.648 OA
HETATM   24  O   UNL     1      10.262  -9.336  22.304  1.00  0.00    -0.648 OA
ENDBRANCH  21  22
ENDBRANCH  20  21
ENDBRANCH  19  20
ENDBRANCH   3  19
TORSDOF 5
ENDMDL
MODEL 20
REMARK VINA RESULT:    -6.579      3.482      5.202
REMARK INTER + INTRA:          -9.449
REMARK INTER:                  -9.351
REMARK INTRA:                  -0.098
REMARK UNBOUND:                -0.947
REMARK  5 active torsions:
REMARK  status: ('A' for Active; 'I' for Inactive)
REMARK    1  A    between atoms: C_3  and  S_13 
REMARK    2  A    between atoms: C_9  and  C_11 
REMARK    3  A    between atoms: C_11  and  C_12 
REMARK    4  A    between atoms: C_12  and  S_13 
REMARK    5  A    between atoms: C_17  and  C_18 
ROOT
HETATM    1  C   UNL     1       9.408  -2.010  22.416  1.00  0.00     0.084 A 
HETATM    2  C   UNL     1       8.848  -3.297  22.437  1.00  0.00     0.039 A 
HETATM    3  C   UNL     1       7.661  -3.575  21.870  1.00  0.00     0.084 A 
HETATM    4  N   UNL     1       6.971  -2.584  21.290  1.00  0.00    -0.346 N 
ATOM      5  HN  UNL     1       6.054  -2.762  20.882  1.00  0.00     0.167 HD
HETATM    6  N   UNL     1       8.741  -1.035  21.822  1.00  0.00    -0.346 N 
ATOM      7  HN  UNL     1       9.125  -0.091  21.785  1.00  0.00     0.167 HD
HETATM    8  C   UNL     1       7.522  -1.313  21.254  1.00  0.00     0.182 A 
HETATM    9  S   UNL     1      10.819  -2.093  23.126  1.00  0.00    -0.107 SA
HETATM   10  C   UNL     1      10.981  -3.565  23.621  1.00  0.00     0.121 A 
HETATM   11  C   UNL     1       9.825  -4.310  23.177  1.00  0.00    -0.022 A 
ENDROOT
BRANCH  11  12
HETATM   12  C   UNL     1       9.795  -5.777  23.566  1.00  0.00    -0.028 A 
HETATM   13  C   UNL     1       8.684  -6.475  23.979  1.00  0.00     0.012 A 
HETATM   14  C   UNL     1       8.823  -7.809  24.322  1.00  0.00     0.007 A 
HETATM   15  C   UNL     1      10.053  -8.440  24.281  1.00  0.00    -0.062 A 
HETATM   16  C   UNL     1      10.162  -9.913  24.665  1.00  0.00     0.048 C 
HETATM   17  C   UNL     1      11.169  -7.738  23.875  1.00  0.00     0.007 A 
HETATM   18  C   UNL     1      11.030  -6.413  23.530  1.00  0.00     0.012 A 
ENDBRANCH  11  12
BRANCH   3  19
HETATM   19  S   UNL     1       6.910  -5.222  21.797  1.00  0.00    -0.111 SA
BRANCH  19  20
HETATM   20  C   UNL     1       5.393  -4.979  20.836  1.00  0.00     0.091 C 
BRANCH  20  21
HETATM   21  C   UNL     1       4.194  -5.426  21.670  1.00  0.00     0.123 C 
BRANCH  21  22
HETATM   22  C   UNL     1       4.087  -6.941  21.826  1.00  0.00     0.173 C 
HETATM   23  O   UNL     1       4.411  -7.656  20.839  1.00  0.00    -0.648 OA
HETATM   24  O   UNL     1       3.693  -7.473  22.898  1.00  0.00    -0.648 OA
ENDBRANCH  21  22
ENDBRANCH  20  21
ENDBRANCH  19  20
ENDBRANCH   3  19
TORSDOF 5
ENDMDL
