REMARK  3 active torsions:
REMARK  status: ('A' for Active; 'I' for Inactive)
REMARK    1  A    between atoms: C_2  and  N_16 
REMARK    2  A    between atoms: C_5  and  N_16 
REMARK    3  A    between atoms: C_19  and  N_20 
ROOT
HETATM    1  C   UNL     1     -23.958  10.123  12.503  1.00  0.00     0.109 A 
HETATM    2  C   UNL     1     -23.763   9.770  13.851  1.00  0.00     0.058 A 
HETATM    3  C   UNL     1     -23.282   8.492  14.106  1.00  0.00     0.048 A 
HETATM    4  C   UNL     1     -23.023   7.647  13.049  1.00  0.00     0.091 A 
HETATM    5  C   UNL     1     -24.426  11.432  12.167  1.00  0.00     0.105 C 
HETATM    6  N   UNL     1     -24.788  12.454  11.862  1.00  0.00    -0.191 NA
HETATM    7  N   UNL     1     -23.210   7.973  11.770  1.00  0.00    -0.355 N 
ATOM      8  HN  UNL     1     -23.008   7.317  11.015  1.00  0.00     0.166 HD
HETATM    9  C   UNL     1     -23.665   9.176  11.532  1.00  0.00     0.126 A 
HETATM   10 CL   UNL     1     -23.915   9.587   9.874  1.00  0.00    -0.063 Cl
ENDROOT
BRANCH   2  11
HETATM   11  N   UNL     1     -24.017  10.652  14.891  1.00  0.00    -0.355 N 
ATOM     12  HN  UNL     1     -24.385  11.576  14.665  1.00  0.00     0.166 HD
BRANCH  11  13
HETATM   13  C   UNL     1     -23.792  10.333  16.240  1.00  0.00     0.033 A 
HETATM   14  C   UNL     1     -22.956  11.182  16.948  1.00  0.00     0.032 A 
HETATM   15  C   UNL     1     -22.662  10.930  18.270  1.00  0.00     0.033 A 
HETATM   16  C   UNL     1     -23.199   9.828  18.912  1.00  0.00     0.047 A 
HETATM   17  C   UNL     1     -24.051   8.963  18.204  1.00  0.00     0.019 A 
HETATM   18  N   UNL     1     -22.906   9.574  20.246  1.00  0.00    -0.323 N 
HETATM   19  C   UNL     1     -24.601   7.810  18.910  1.00  0.00     0.048 A 
HETATM   20  C   UNL     1     -24.340   9.228  16.868  1.00  0.00     0.045 A 
HETATM   21  C   UNL     1     -24.251   7.656  20.215  1.00  0.00     0.104 A 
HETATM   22  C   UNL     1     -23.395   8.518  20.949  1.00  0.00     0.247 A 
HETATM   23  O   UNL     1     -23.094   8.366  22.117  1.00  0.00    -0.268 OA
ATOM     24  HN  UNL     1     -22.284  10.222  20.729  1.00  0.00     0.169 HD
BRANCH  19  25
HETATM   25  N   UNL     1     -25.423   6.943  18.251  1.00  0.00    -0.377 N 
HETATM   26  C   UNL     1     -26.306   6.116  19.071  1.00  0.00     0.153 C 
HETATM   27  C   UNL     1     -27.322   5.413  18.196  1.00  0.00     0.291 C 
HETATM   28  N   UNL     1     -26.658   4.621  17.168  1.00  0.00     0.087 N 
HETATM   29  C   UNL     1     -25.837   5.494  16.340  1.00  0.00     0.291 C 
HETATM   30  C   UNL     1     -27.629   3.913  16.360  1.00  0.00     0.310 C 
HETATM   31  C   UNL     1     -24.789   6.188  17.170  1.00  0.00     0.153 C 
ENDBRANCH  19  25
ENDBRANCH  11  13
ENDBRANCH   2  11
TORSDOF 3
