REMARK  6 active torsions:
REMARK  status: ('A' for Active; 'I' for Inactive)
REMARK    1  A    between atoms: S_1  and  O_4 
REMARK    2  A    between atoms: S_1  and  C_5 
REMARK    3  A    between atoms: C_5  and  C_6 
REMARK    4  A    between atoms: C_6  and  C_7 
REMARK    5  A    between atoms: C_7  and  N_8 
REMARK    6  A    between atoms: N_8  and  C_9 
ROOT
HETATM    1  C   UNL     1      -0.226   0.316   1.525  1.00  0.00     0.271 C 
ENDROOT
BRANCH   1   2
HETATM    2  C   UNL     1      -1.053   1.569   1.199  1.00  0.00     0.046 C 
BRANCH   2   3
HETATM    3  C   UNL     1      -2.542   1.286   0.942  1.00  0.00     0.157 C 
BRANCH   3   4
HETATM    4  S   UNL     1      -3.392   0.663   2.388  1.00  0.00     0.094 S 
HETATM    5  O   UNL     1      -4.873   0.812   2.184  1.00  0.00    -0.601 OA
HETATM    6  O   UNL     1      -2.976   1.443   3.605  1.00  0.00    -0.601 OA
BRANCH   4   7
HETATM    7  O   UNL     1      -3.024  -0.963   2.603  1.00  0.00    -0.296 OA
HETATM    8  H   UNL     1      -3.510  -1.229   3.425  1.00  0.00     0.232 HD
ENDBRANCH   4   7
ENDBRANCH   3   4
ENDBRANCH   2   3
ENDBRANCH   1   2
BRANCH   1   9
HETATM    9  N   UNL     1      -0.401  -0.723   0.498  1.00  0.00     0.088 N 
HETATM   10  H   UNL     1      -0.278  -1.665   0.940  1.00  0.00     0.316 HD
BRANCH   9  11
HETATM   11  C   UNL     1       0.529  -0.572  -0.638  1.00  0.00     0.220 C 
HETATM   12  C   UNL     1       1.892  -1.245  -0.353  1.00  0.00     0.035 C 
HETATM   13  C   UNL     1       2.823  -1.135  -1.567  1.00  0.00     0.002 C 
HETATM   14  C   UNL     1       2.173  -1.741  -2.816  1.00  0.00     0.000 C 
HETATM   15  C   UNL     1       0.817  -1.085  -3.104  1.00  0.00     0.002 C 
HETATM   16  C   UNL     1      -0.115  -1.190  -1.890  1.00  0.00     0.035 C 
ENDBRANCH   9  11
ENDBRANCH   1   9
TORSDOF 6
