REMARK  5 active torsions:
REMARK  status: ('A' for Active; 'I' for Inactive)
REMARK    1  A    between atoms: S_1  and  C_5 
REMARK    2  A    between atoms: C_5  and  C_6 
REMARK    3  A    between atoms: C_6  and  C_7 
REMARK    4  A    between atoms: C_7  and  N_8 
REMARK    5  A    between atoms: N_8  and  C_11 
ROOT
HETATM    1  N   UNL     1       3.949  11.780  14.841  1.00  0.00    -0.071 N 
ATOM      2  HN1 UNL     1       4.248  12.025  13.897  1.00  0.00     0.277 HD
ATOM      3  HN2 UNL     1       4.861  11.668  15.284  1.00  0.00     0.277 HD
ENDROOT
BRANCH   1   4
HETATM    4  C   UNL     1       3.210  10.505  14.840  1.00  0.00     0.233 C 
BRANCH   4   5
HETATM    5  C   UNL     1       4.167   9.335  14.610  1.00  0.00     0.045 C 
BRANCH   5   6
HETATM    6  C   UNL     1       3.447   7.983  14.566  1.00  0.00     0.167 C 
BRANCH   6   7
HETATM    7  S   UNL     1       3.383   7.429  12.986  1.00  0.00     0.101 S 
HETATM    8  O   UNL     1       4.679   7.674  12.376  1.00  0.00    -0.595 OA
HETATM    9  O   UNL     1       2.983   6.057  12.976  1.00  0.00    -0.595 OA
HETATM   10  O   UNL     1       2.277   8.331  12.225  1.00  0.00    -0.595 OA
ENDBRANCH   6   7
ENDBRANCH   5   6
ENDBRANCH   4   5
ENDBRANCH   1   4
BRANCH   1  11
HETATM   11  C   UNL     1       3.197  12.900  15.461  1.00  0.00     0.185 C 
HETATM   12  C   UNL     1       3.657  14.218  14.862  1.00  0.00     0.033 C 
HETATM   13  C   UNL     1       2.566  15.297  14.834  1.00  0.00     0.002 C 
HETATM   14  C   UNL     1       1.572  15.159  15.979  1.00  0.00     0.000 C 
HETATM   15  C   UNL     1       0.835  13.844  15.853  1.00  0.00     0.002 C 
HETATM   16  C   UNL     1       1.701  12.727  15.271  1.00  0.00     0.033 C 
ENDBRANCH   1  11
TORSDOF 5
