REMARK  2 active torsions:
REMARK  status: ('A' for Active; 'I' for Inactive)
REMARK    1  A    between atoms: C_1  and  C_12 
REMARK    2  A    between atoms: CA_11  and  C_16 
ROOT
HETATM    1  C   UNL     1     -24.118   0.668  61.830  1.00  0.00     0.022 A 
HETATM    2  C   UNL     1     -28.128  -1.812  62.585  1.00  0.00     0.050 C 
HETATM    3  C   UNL     1     -27.489  -0.459  62.337  1.00  0.00    -0.034 A 
HETATM    4  C   UNL     1     -28.275   0.680  62.276  1.00  0.00     0.009 A 
HETATM    5  C   UNL     1     -27.687   1.926  62.048  1.00  0.00     0.002 A 
HETATM    6  C   UNL     1     -26.313   2.035  61.875  1.00  0.00     0.014 A 
HETATM    7  C   UNL     1     -25.526   0.888  61.935  1.00  0.00     0.005 A 
HETATM    8  C   UNL     1     -26.103  -0.354  62.163  1.00  0.00     0.050 A 
HETATM    9  CA  UNL     1     -23.962  -0.719  61.970  1.00  0.00     0.122 A 
HETATM   10  N   UNL     1     -25.142  -1.284  62.169  1.00  0.00    -0.349 N 
ATOM     11  HN  UNL     1     -25.296  -2.283  62.307  1.00  0.00     0.166 HD
ENDROOT
BRANCH   1  12
HETATM   12  C   UNL     1     -23.088   1.713  61.501  1.00  0.00    -0.001 A 
HETATM   13  C   UNL     1     -22.486   1.606  60.255  1.00  0.00     0.014 A 
HETATM   14  C   UNL     1     -21.540   2.538  59.840  1.00  0.00     0.001 A 
HETATM   15  C   UNL     1     -21.213   3.595  60.672  1.00  0.00     0.002 A 
HETATM   16  C   UNL     1     -21.828   3.713  61.905  1.00  0.00     0.024 A 
HETATM   17  C   UNL     1     -22.766   2.784  62.310  1.00  0.00     0.045 A 
HETATM   18 CL   UNL     1     -23.526   2.955  63.855  1.00  0.00    -0.083 Cl
ENDBRANCH   1  12
BRANCH   9  19
HETATM   19  C   UNL     1     -22.669  -1.484  61.946  1.00  0.00     0.227 C 
HETATM   20  O   UNL     1     -21.583  -0.951  62.295  1.00  0.00    -0.643 OA
HETATM   21  OXT UNL     1     -22.688  -2.686  61.629  1.00  0.00    -0.643 OA
ENDBRANCH   9  19
TORSDOF 2
