MODEL 1
REMARK VINA RESULT:    -9.408      0.000      0.000
REMARK INTER + INTRA:         -16.952
REMARK INTER:                 -15.458
REMARK INTRA:                  -1.494
REMARK UNBOUND:                -1.494
REMARK  11 active torsions:
REMARK  status: ('A' for Active; 'I' for Inactive)
REMARK    1  A    between atoms: C_2  and  N_4 
REMARK    2  A    between atoms: N_4  and  C_5 
REMARK       I    between atoms: N_4  and  C_7 
REMARK    3  A    between atoms: C_7  and  C_9 
REMARK    4  A    between atoms: C_15  and  O_16 
REMARK    5  A    between atoms: O_16  and  C_17 
REMARK    6  A    between atoms: C_24  and  N_25 
REMARK    7  A    between atoms: N_33  and  C_34 
REMARK    8  A    between atoms: C_34  and  C_35 
REMARK    9  A    between atoms: C_40  and  N_41 
REMARK   10  A    between atoms: N_41  and  S_43 
REMARK   11  A    between atoms: S_43  and  C_46 
ROOT
HETATM    1  C   UNL     1     -20.771   2.092  24.214  1.00  0.00     0.135 A 
HETATM    2  C   UNL     1     -20.373   3.402  24.302  1.00  0.00     0.130 A 
HETATM    3  N   UNL     1     -19.190   3.770  23.854  1.00  0.00    -0.359 N 
ATOM      4  HN  UNL     1     -18.864   4.732  23.949  1.00  0.00     0.166 HD
HETATM    5  C   UNL     1     -18.430   2.836  23.269  1.00  0.00     0.182 A 
HETATM    6  N   UNL     1     -18.727   1.535  23.197  1.00  0.00    -0.336 N 
ATOM      7  HN  UNL     1     -18.063   0.860  22.819  1.00  0.00     0.168 HD
HETATM    8  C   UNL     1     -19.918   1.158  23.638  1.00  0.00     0.140 A 
ENDROOT
BRANCH   8   9
HETATM    9  N   UNL     1     -20.248  -0.158  23.603  1.00  0.00    -0.363 N 
HETATM   10  C   UNL     1     -20.015  -1.128  22.547  1.00  0.00     0.135 A 
HETATM   11  C   UNL     1     -20.419  -2.203  23.646  1.00  0.00    -0.005 A 
HETATM   12  C   UNL     1     -20.725  -1.031  24.670  1.00  0.00     0.135 A 
HETATM   13  C   UNL     1     -21.655  -3.020  23.281  1.00  0.00     0.043 C 
HETATM   14  C   UNL     1     -19.295  -3.167  24.021  1.00  0.00     0.043 C 
HETATM   15  C   UNL     1     -21.387  -3.996  22.163  1.00  0.00     0.273 C 
HETATM   16  N   UNL     1     -20.252  -4.913  22.499  1.00  0.00     0.088 N 
HETATM   17  C   UNL     1     -19.021  -4.141  22.897  1.00  0.00     0.273 C 
BRANCH  16  18
HETATM   18  C   UNL     1     -19.970  -5.768  21.302  1.00  0.00     0.277 C 
BRANCH  18  19
HETATM   19  C   UNL     1     -19.105  -6.991  21.608  1.00  0.00     0.014 C 
HETATM   20  C   UNL     1     -19.721  -7.903  22.678  1.00  0.00     0.008 C 
HETATM   21  C   UNL     1     -18.876  -9.135  22.957  1.00  0.00     0.026 C 
HETATM   22  C   UNL     1     -18.542  -9.872  21.678  1.00  0.00     0.092 C 
HETATM   23  C   UNL     1     -17.892  -8.969  20.643  1.00  0.00     0.026 C 
HETATM   24  C   UNL     1     -18.784  -7.774  20.337  1.00  0.00     0.008 C 
BRANCH  22  25
HETATM   25  N   UNL     1     -17.638 -11.002  21.956  1.00  0.00    -0.315 N 
ATOM     26  HN  UNL     1     -16.713 -10.802  22.337  1.00  0.00     0.172 HD
BRANCH  25  27
HETATM   27  S   UNL     1     -18.046 -12.557  21.683  1.00  0.00     0.226 S 
HETATM   28  O   UNL     1     -19.041 -12.497  20.655  1.00  0.00    -0.206 OA
HETATM   29  O   UNL     1     -16.825 -13.270  21.436  1.00  0.00    -0.206 OA
BRANCH  27  30
HETATM   30  C   UNL     1     -18.791 -13.140  23.196  1.00  0.00     0.158 C 
HETATM   31  C   UNL     1     -19.833 -14.217  22.972  1.00  0.00     0.023 C 
ENDBRANCH  27  30
ENDBRANCH  25  27
ENDBRANCH  22  25
ENDBRANCH  18  19
ENDBRANCH  16  18
ENDBRANCH   8   9
BRANCH   1  32
HETATM   32  O   UNL     1     -21.994   1.751  24.683  1.00  0.00    -0.304 OA
BRANCH  32  33
HETATM   33  C   UNL     1     -22.403   2.048  25.974  1.00  0.00     0.092 A 
HETATM   34  C   UNL     1     -21.480   1.998  26.997  1.00  0.00     0.041 A 
HETATM   35  C   UNL     1     -21.878   2.248  28.296  1.00  0.00     0.045 A 
HETATM   36  C   UNL     1     -23.210   2.510  28.513  1.00  0.00     0.117 A 
HETATM   37  F   UNL     1     -23.583   2.769  29.785  1.00  0.00    -0.206 F 
HETATM   38  C   UNL     1     -24.160   2.529  27.522  1.00  0.00     0.062 A 
HETATM   39  C   UNL     1     -23.764   2.253  26.213  1.00  0.00     0.069 A 
BRANCH  39  40
HETATM   40  C   UNL     1     -24.750   2.184  25.058  1.00  0.00     0.257 C 
HETATM   41  N   UNL     1     -25.026   3.234  24.263  1.00  0.00    -0.344 N 
HETATM   42  O   UNL     1     -25.295   1.111  24.846  1.00  0.00    -0.267 OA
BRANCH  41  43
HETATM   43  C   UNL     1     -24.593   4.606  24.556  1.00  0.00     0.079 C 
HETATM   44  C   UNL     1     -25.707   5.583  24.251  1.00  0.00     0.032 C 
HETATM   45  C   UNL     1     -23.299   4.928  23.851  1.00  0.00     0.032 C 
ENDBRANCH  41  43
BRANCH  41  46
HETATM   46  C   UNL     1     -25.876   3.090  23.073  1.00  0.00     0.122 C 
HETATM   47  C   UNL     1     -25.130   2.622  21.859  1.00  0.00     0.026 C 
ENDBRANCH  41  46
ENDBRANCH  39  40
ENDBRANCH  32  33
ENDBRANCH   1  32
TORSDOF 11
ENDMDL
MODEL 2
REMARK VINA RESULT:    -9.354      1.149      1.641
REMARK INTER + INTRA:         -16.863
REMARK INTER:                 -15.112
REMARK INTRA:                  -1.752
REMARK UNBOUND:                -1.494
REMARK  11 active torsions:
REMARK  status: ('A' for Active; 'I' for Inactive)
REMARK    1  A    between atoms: C_2  and  N_4 
REMARK    2  A    between atoms: N_4  and  C_5 
REMARK       I    between atoms: N_4  and  C_7 
REMARK    3  A    between atoms: C_7  and  C_9 
REMARK    4  A    between atoms: C_15  and  O_16 
REMARK    5  A    between atoms: O_16  and  C_17 
REMARK    6  A    between atoms: C_24  and  N_25 
REMARK    7  A    between atoms: N_33  and  C_34 
REMARK    8  A    between atoms: C_34  and  C_35 
REMARK    9  A    between atoms: C_40  and  N_41 
REMARK   10  A    between atoms: N_41  and  S_43 
REMARK   11  A    between atoms: S_43  and  C_46 
ROOT
HETATM    1  C   UNL     1     -20.276   1.992  23.839  1.00  0.00     0.135 A 
HETATM    2  C   UNL     1     -19.759   3.250  23.659  1.00  0.00     0.130 A 
HETATM    3  N   UNL     1     -18.720   3.436  22.871  1.00  0.00    -0.359 N 
ATOM      4  HN  UNL     1     -18.299   4.359  22.759  1.00  0.00     0.166 HD
HETATM    5  C   UNL     1     -18.234   2.371  22.222  1.00  0.00     0.182 A 
HETATM    6  N   UNL     1     -18.649   1.111  22.390  1.00  0.00    -0.336 N 
ATOM      7  HN  UNL     1     -18.177   0.332  21.933  1.00  0.00     0.168 HD
HETATM    8  C   UNL     1     -19.699   0.916  23.175  1.00  0.00     0.140 A 
ENDROOT
BRANCH   8   9
HETATM    9  N   UNL     1     -20.137  -0.350  23.389  1.00  0.00    -0.363 N 
HETATM   10  C   UNL     1     -20.196  -1.464  22.456  1.00  0.00     0.135 A 
HETATM   11  C   UNL     1     -20.464  -2.344  23.753  1.00  0.00    -0.005 A 
HETATM   12  C   UNL     1     -20.465  -1.028  24.638  1.00  0.00     0.135 A 
HETATM   13  C   UNL     1     -21.810  -3.062  23.741  1.00  0.00     0.043 C 
HETATM   14  C   UNL     1     -19.371  -3.370  24.048  1.00  0.00     0.043 C 
HETATM   15  C   UNL     1     -21.848  -4.192  22.742  1.00  0.00     0.273 C 
HETATM   16  N   UNL     1     -20.748  -5.177  22.991  1.00  0.00     0.088 N 
HETATM   17  C   UNL     1     -19.404  -4.499  23.043  1.00  0.00     0.273 C 
BRANCH  16  18
HETATM   18  C   UNL     1     -20.778  -6.199  21.897  1.00  0.00     0.277 C 
BRANCH  18  19
HETATM   19  C   UNL     1     -19.729  -7.300  22.053  1.00  0.00     0.014 C 
HETATM   20  C   UNL     1     -20.000  -8.214  23.257  1.00  0.00     0.008 C 
HETATM   21  C   UNL     1     -18.974  -9.328  23.391  1.00  0.00     0.026 C 
HETATM   22  C   UNL     1     -18.824 -10.094  22.094  1.00  0.00     0.092 C 
HETATM   23  C   UNL     1     -18.513  -9.183  20.918  1.00  0.00     0.026 C 
HETATM   24  C   UNL     1     -19.584  -8.113  20.768  1.00  0.00     0.008 C 
BRANCH  22  25
HETATM   25  N   UNL     1     -17.754 -11.100  22.212  1.00  0.00    -0.315 N 
ATOM     26  HN  UNL     1     -16.864 -10.817  22.621  1.00  0.00     0.172 HD
BRANCH  25  27
HETATM   27  S   UNL     1     -17.927 -12.645  21.719  1.00  0.00     0.226 S 
HETATM   28  O   UNL     1     -18.823 -12.574  20.605  1.00  0.00    -0.206 OA
HETATM   29  O   UNL     1     -16.605 -13.169  21.524  1.00  0.00    -0.206 OA
BRANCH  27  30
HETATM   30  C   UNL     1     -18.722 -13.502  23.068  1.00  0.00     0.158 C 
HETATM   31  C   UNL     1     -19.976 -14.241  22.647  1.00  0.00     0.023 C 
ENDBRANCH  27  30
ENDBRANCH  25  27
ENDBRANCH  22  25
ENDBRANCH  18  19
ENDBRANCH  16  18
ENDBRANCH   8   9
BRANCH   1  32
HETATM   32  O   UNL     1     -21.345   1.838  24.655  1.00  0.00    -0.304 OA
BRANCH  32  33
HETATM   33  C   UNL     1     -21.421   2.443  25.901  1.00  0.00     0.092 A 
HETATM   34  C   UNL     1     -20.638   1.959  26.928  1.00  0.00     0.041 A 
HETATM   35  C   UNL     1     -20.733   2.519  28.187  1.00  0.00     0.045 A 
HETATM   36  C   UNL     1     -21.644   3.533  28.365  1.00  0.00     0.117 A 
HETATM   37  F   UNL     1     -21.715   4.083  29.597  1.00  0.00    -0.206 F 
HETATM   38  C   UNL     1     -22.465   4.011  27.373  1.00  0.00     0.062 A 
HETATM   39  C   UNL     1     -22.388   3.430  26.107  1.00  0.00     0.069 A 
BRANCH  39  40
HETATM   40  C   UNL     1     -23.300   3.841  24.962  1.00  0.00     0.257 C 
HETATM   41  N   UNL     1     -24.494   3.267  24.732  1.00  0.00    -0.344 N 
HETATM   42  O   UNL     1     -22.920   4.750  24.238  1.00  0.00    -0.267 OA
BRANCH  41  43
HETATM   43  C   UNL     1     -24.947   2.042  25.402  1.00  0.00     0.079 C 
HETATM   44  C   UNL     1     -25.589   1.105  24.404  1.00  0.00     0.032 C 
HETATM   45  C   UNL     1     -25.830   2.364  26.581  1.00  0.00     0.032 C 
ENDBRANCH  41  43
BRANCH  41  46
HETATM   46  C   UNL     1     -25.406   3.788  23.703  1.00  0.00     0.122 C 
HETATM   47  C   UNL     1     -26.212   4.967  24.161  1.00  0.00     0.026 C 
ENDBRANCH  41  46
ENDBRANCH  39  40
ENDBRANCH  32  33
ENDBRANCH   1  32
TORSDOF 11
ENDMDL
MODEL 3
REMARK VINA RESULT:    -9.344      1.737      3.154
REMARK INTER + INTRA:         -16.846
REMARK INTER:                 -14.880
REMARK INTRA:                  -1.967
REMARK UNBOUND:                -1.494
REMARK  11 active torsions:
REMARK  status: ('A' for Active; 'I' for Inactive)
REMARK    1  A    between atoms: C_2  and  N_4 
REMARK    2  A    between atoms: N_4  and  C_5 
REMARK       I    between atoms: N_4  and  C_7 
REMARK    3  A    between atoms: C_7  and  C_9 
REMARK    4  A    between atoms: C_15  and  O_16 
REMARK    5  A    between atoms: O_16  and  C_17 
REMARK    6  A    between atoms: C_24  and  N_25 
REMARK    7  A    between atoms: N_33  and  C_34 
REMARK    8  A    between atoms: C_34  and  C_35 
REMARK    9  A    between atoms: C_40  and  N_41 
REMARK   10  A    between atoms: N_41  and  S_43 
REMARK   11  A    between atoms: S_43  and  C_46 
ROOT
HETATM    1  C   UNL     1     -21.036   2.082  23.779  1.00  0.00     0.135 A 
HETATM    2  C   UNL     1     -20.760   3.415  23.603  1.00  0.00     0.130 A 
HETATM    3  N   UNL     1     -19.579   3.798  23.161  1.00  0.00    -0.359 N 
ATOM      4  HN  UNL     1     -19.347   4.786  23.064  1.00  0.00     0.166 HD
HETATM    5  C   UNL     1     -18.696   2.843  22.844  1.00  0.00     0.182 A 
HETATM    6  N   UNL     1     -18.874   1.534  23.041  1.00  0.00    -0.336 N 
ATOM      7  HN  UNL     1     -18.125   0.864  22.862  1.00  0.00     0.168 HD
HETATM    8  C   UNL     1     -20.061   1.139  23.478  1.00  0.00     0.140 A 
ENDROOT
BRANCH   8   9
HETATM    9  N   UNL     1     -20.273  -0.181  23.711  1.00  0.00    -0.363 N 
HETATM   10  C   UNL     1     -20.366  -1.272  22.755  1.00  0.00     0.135 A 
HETATM   11  C   UNL     1     -20.250  -2.208  24.035  1.00  0.00    -0.005 A 
HETATM   12  C   UNL     1     -20.252  -0.923  24.966  1.00  0.00     0.135 A 
HETATM   13  C   UNL     1     -21.462  -3.109  24.250  1.00  0.00     0.043 C 
HETATM   14  C   UNL     1     -18.992  -3.075  24.063  1.00  0.00     0.043 C 
HETATM   15  C   UNL     1     -21.546  -4.212  23.225  1.00  0.00     0.273 C 
HETATM   16  N   UNL     1     -20.295  -5.036  23.208  1.00  0.00     0.088 N 
HETATM   17  C   UNL     1     -19.072  -4.176  23.031  1.00  0.00     0.273 C 
BRANCH  16  18
HETATM   18  C   UNL     1     -20.405  -6.030  22.093  1.00  0.00     0.277 C 
BRANCH  18  19
HETATM   19  C   UNL     1     -19.416  -7.191  22.203  1.00  0.00     0.014 C 
HETATM   20  C   UNL     1     -19.828  -8.225  23.261  1.00  0.00     0.008 C 
HETATM   21  C   UNL     1     -18.862  -9.395  23.345  1.00  0.00     0.026 C 
HETATM   22  C   UNL     1     -18.625 -10.010  21.983  1.00  0.00     0.092 C 
HETATM   23  C   UNL     1     -18.175  -8.985  20.956  1.00  0.00     0.026 C 
HETATM   24  C   UNL     1     -19.188  -7.854  20.847  1.00  0.00     0.008 C 
BRANCH  22  25
HETATM   25  N   UNL     1     -17.609 -11.074  22.069  1.00  0.00    -0.315 N 
ATOM     26  HN  UNL     1     -16.631 -10.804  22.174  1.00  0.00     0.172 HD
BRANCH  25  27
HETATM   27  S   UNL     1     -17.974 -12.662  22.003  1.00  0.00     0.226 S 
HETATM   28  O   UNL     1     -16.777 -13.293  21.535  1.00  0.00    -0.206 OA
HETATM   29  O   UNL     1     -18.500 -13.021  23.290  1.00  0.00    -0.206 OA
BRANCH  27  30
HETATM   30  C   UNL     1     -19.250 -12.819  20.765  1.00  0.00     0.158 C 
HETATM   31  C   UNL     1     -20.639 -12.960  21.355  1.00  0.00     0.023 C 
ENDBRANCH  27  30
ENDBRANCH  25  27
ENDBRANCH  22  25
ENDBRANCH  18  19
ENDBRANCH  16  18
ENDBRANCH   8   9
BRANCH   1  32
HETATM   32  O   UNL     1     -22.260   1.725  24.233  1.00  0.00    -0.304 OA
BRANCH  32  33
HETATM   33  C   UNL     1     -23.423   2.342  23.797  1.00  0.00     0.092 A 
HETATM   34  C   UNL     1     -23.800   2.203  22.479  1.00  0.00     0.041 A 
HETATM   35  C   UNL     1     -24.931   2.847  22.015  1.00  0.00     0.045 A 
HETATM   36  C   UNL     1     -25.623   3.636  22.904  1.00  0.00     0.117 A 
HETATM   37  F   UNL     1     -26.736   4.246  22.442  1.00  0.00    -0.206 F 
HETATM   38  C   UNL     1     -25.251   3.826  24.212  1.00  0.00     0.062 A 
HETATM   39  C   UNL     1     -24.095   3.196  24.676  1.00  0.00     0.069 A 
BRANCH  39  40
HETATM   40  C   UNL     1     -23.564   3.396  26.086  1.00  0.00     0.257 C 
HETATM   41  N   UNL     1     -23.876   2.582  27.110  1.00  0.00    -0.344 N 
HETATM   42  O   UNL     1     -22.807   4.337  26.274  1.00  0.00    -0.267 OA
BRANCH  41  43
HETATM   43  C   UNL     1     -24.929   1.561  27.042  1.00  0.00     0.079 C 
HETATM   44  C   UNL     1     -25.740   1.560  28.319  1.00  0.00     0.032 C 
HETATM   45  C   UNL     1     -24.354   0.213  26.691  1.00  0.00     0.032 C 
ENDBRANCH  41  43
BRANCH  41  46
HETATM   46  C   UNL     1     -23.232   2.726  28.424  1.00  0.00     0.122 C 
HETATM   47  C   UNL     1     -21.853   2.138  28.481  1.00  0.00     0.026 C 
ENDBRANCH  41  46
ENDBRANCH  39  40
ENDBRANCH  32  33
ENDBRANCH   1  32
TORSDOF 11
ENDMDL
MODEL 4
REMARK VINA RESULT:    -9.127      1.991      3.734
REMARK INTER + INTRA:         -16.491
REMARK INTER:                 -14.670
REMARK INTRA:                  -1.821
REMARK UNBOUND:                -1.494
REMARK  11 active torsions:
REMARK  status: ('A' for Active; 'I' for Inactive)
REMARK    1  A    between atoms: C_2  and  N_4 
REMARK    2  A    between atoms: N_4  and  C_5 
REMARK       I    between atoms: N_4  and  C_7 
REMARK    3  A    between atoms: C_7  and  C_9 
REMARK    4  A    between atoms: C_15  and  O_16 
REMARK    5  A    between atoms: O_16  and  C_17 
REMARK    6  A    between atoms: C_24  and  N_25 
REMARK    7  A    between atoms: N_33  and  C_34 
REMARK    8  A    between atoms: C_34  and  C_35 
REMARK    9  A    between atoms: C_40  and  N_41 
REMARK   10  A    between atoms: N_41  and  S_43 
REMARK   11  A    between atoms: S_43  and  C_46 
ROOT
HETATM    1  C   UNL     1     -24.178   1.251  25.966  1.00  0.00     0.135 A 
HETATM    2  C   UNL     1     -24.805   2.466  26.086  1.00  0.00     0.130 A 
HETATM    3  N   UNL     1     -25.891   2.728  25.387  1.00  0.00    -0.359 N 
ATOM      4  HN  UNL     1     -26.343   3.641  25.435  1.00  0.00     0.166 HD
HETATM    5  C   UNL     1     -26.378   1.752  24.611  1.00  0.00     0.182 A 
HETATM    6  N   UNL     1     -25.794   0.569  24.402  1.00  0.00    -0.336 N 
ATOM      7  HN  UNL     1     -26.171  -0.097  23.727  1.00  0.00     0.168 HD
HETATM    8  C   UNL     1     -24.706   0.294  25.107  1.00  0.00     0.140 A 
ENDROOT
BRANCH   8   9
HETATM    9  N   UNL     1     -24.071  -0.888  24.907  1.00  0.00    -0.363 N 
HETATM   10  C   UNL     1     -22.879  -1.161  24.122  1.00  0.00     0.135 A 
HETATM   11  C   UNL     1     -22.898  -2.572  24.856  1.00  0.00    -0.005 A 
HETATM   12  C   UNL     1     -24.254  -2.171  25.575  1.00  0.00     0.135 A 
HETATM   13  C   UNL     1     -23.048  -3.757  23.906  1.00  0.00     0.043 C 
HETATM   14  C   UNL     1     -21.690  -2.824  25.756  1.00  0.00     0.043 C 
HETATM   15  C   UNL     1     -21.804  -3.995  23.085  1.00  0.00     0.273 C 
HETATM   16  N   UNL     1     -20.604  -4.191  23.959  1.00  0.00     0.088 N 
HETATM   17  C   UNL     1     -20.442  -3.055  24.935  1.00  0.00     0.273 C 
BRANCH  16  18
HETATM   18  C   UNL     1     -19.398  -4.303  23.079  1.00  0.00     0.277 C 
BRANCH  18  19
HETATM   19  C   UNL     1     -19.214  -5.689  22.459  1.00  0.00     0.014 C 
HETATM   20  C   UNL     1     -17.741  -6.113  22.376  1.00  0.00     0.008 C 
HETATM   21  C   UNL     1     -17.563  -7.505  21.790  1.00  0.00     0.026 C 
HETATM   22  C   UNL     1     -18.427  -8.517  22.510  1.00  0.00     0.092 C 
HETATM   23  C   UNL     1     -19.889  -8.108  22.547  1.00  0.00     0.026 C 
HETATM   24  C   UNL     1     -20.048  -6.738  23.191  1.00  0.00     0.008 C 
BRANCH  22  25
HETATM   25  N   UNL     1     -18.320  -9.837  21.864  1.00  0.00    -0.315 N 
ATOM     26  HN  UNL     1     -17.949  -9.885  20.915  1.00  0.00     0.172 HD
BRANCH  25  27
HETATM   27  S   UNL     1     -18.766 -11.225  22.594  1.00  0.00     0.226 S 
HETATM   28  O   UNL     1     -18.658 -10.951  23.995  1.00  0.00    -0.206 OA
HETATM   29  O   UNL     1     -20.042 -11.590  22.048  1.00  0.00    -0.206 OA
BRANCH  27  30
HETATM   30  C   UNL     1     -17.542 -12.438  22.130  1.00  0.00     0.158 C 
HETATM   31  C   UNL     1     -18.121 -13.601  21.351  1.00  0.00     0.023 C 
ENDBRANCH  27  30
ENDBRANCH  25  27
ENDBRANCH  22  25
ENDBRANCH  18  19
ENDBRANCH  16  18
ENDBRANCH   8   9
BRANCH   1  32
HETATM   32  O   UNL     1     -23.066   1.017  26.700  1.00  0.00    -0.304 OA
BRANCH  32  33
HETATM   33  C   UNL     1     -22.301   2.042  27.236  1.00  0.00     0.092 A 
HETATM   34  C   UNL     1     -22.774   2.725  28.336  1.00  0.00     0.041 A 
HETATM   35  C   UNL     1     -22.047   3.779  28.856  1.00  0.00     0.045 A 
HETATM   36  C   UNL     1     -20.876   4.119  28.221  1.00  0.00     0.117 A 
HETATM   37  F   UNL     1     -20.167   5.139  28.749  1.00  0.00    -0.206 F 
HETATM   38  C   UNL     1     -20.398   3.483  27.102  1.00  0.00     0.062 A 
HETATM   39  C   UNL     1     -21.143   2.434  26.560  1.00  0.00     0.069 A 
BRANCH  39  40
HETATM   40  C   UNL     1     -20.733   1.712  25.286  1.00  0.00     0.257 C 
HETATM   41  N   UNL     1     -21.008   2.181  24.056  1.00  0.00    -0.344 N 
HETATM   42  O   UNL     1     -20.110   0.668  25.407  1.00  0.00    -0.267 OA
BRANCH  41  43
HETATM   43  C   UNL     1     -21.921   3.301  23.801  1.00  0.00     0.079 C 
HETATM   44  C   UNL     1     -23.059   2.857  22.908  1.00  0.00     0.032 C 
HETATM   45  C   UNL     1     -21.174   4.500  23.274  1.00  0.00     0.032 C 
ENDBRANCH  41  43
BRANCH  41  46
HETATM   46  C   UNL     1     -20.472   1.527  22.853  1.00  0.00     0.122 C 
HETATM   47  C   UNL     1     -19.008   1.773  22.641  1.00  0.00     0.026 C 
ENDBRANCH  41  46
ENDBRANCH  39  40
ENDBRANCH  32  33
ENDBRANCH   1  32
TORSDOF 11
ENDMDL
MODEL 5
REMARK VINA RESULT:    -9.015      1.852      2.334
REMARK INTER + INTRA:         -16.306
REMARK INTER:                 -14.674
REMARK INTRA:                  -1.632
REMARK UNBOUND:                -1.494
REMARK  11 active torsions:
REMARK  status: ('A' for Active; 'I' for Inactive)
REMARK    1  A    between atoms: C_2  and  N_4 
REMARK    2  A    between atoms: N_4  and  C_5 
REMARK       I    between atoms: N_4  and  C_7 
REMARK    3  A    between atoms: C_7  and  C_9 
REMARK    4  A    between atoms: C_15  and  O_16 
REMARK    5  A    between atoms: O_16  and  C_17 
REMARK    6  A    between atoms: C_24  and  N_25 
REMARK    7  A    between atoms: N_33  and  C_34 
REMARK    8  A    between atoms: C_34  and  C_35 
REMARK    9  A    between atoms: C_40  and  N_41 
REMARK   10  A    between atoms: N_41  and  S_43 
REMARK   11  A    between atoms: S_43  and  C_46 
ROOT
HETATM    1  C   UNL     1     -22.707   2.040  25.001  1.00  0.00     0.135 A 
HETATM    2  C   UNL     1     -23.067   3.350  24.810  1.00  0.00     0.130 A 
HETATM    3  N   UNL     1     -22.523   4.056  23.840  1.00  0.00    -0.359 N 
ATOM      4  HN  UNL     1     -22.751   5.042  23.712  1.00  0.00     0.166 HD
HETATM    5  C   UNL     1     -21.660   3.433  23.028  1.00  0.00     0.182 A 
HETATM    6  N   UNL     1     -21.221   2.181  23.186  1.00  0.00    -0.336 N 
ATOM      7  HN  UNL     1     -20.494   1.795  22.584  1.00  0.00     0.168 HD
HETATM    8  C   UNL     1     -21.769   1.461  24.154  1.00  0.00     0.140 A 
ENDROOT
BRANCH   8   9
HETATM    9  N   UNL     1     -21.334   0.193  24.360  1.00  0.00    -0.363 N 
HETATM   10  C   UNL     1     -21.613  -1.004  23.584  1.00  0.00     0.135 A 
HETATM   11  C   UNL     1     -20.436  -1.652  24.434  1.00  0.00    -0.005 A 
HETATM   12  C   UNL     1     -20.305  -0.307  25.265  1.00  0.00     0.135 A 
HETATM   13  C   UNL     1     -20.873  -2.843  25.281  1.00  0.00     0.043 C 
HETATM   14  C   UNL     1     -19.222  -2.068  23.604  1.00  0.00     0.043 C 
HETATM   15  C   UNL     1     -21.183  -4.059  24.444  1.00  0.00     0.273 C 
HETATM   16  N   UNL     1     -20.017  -4.444  23.587  1.00  0.00     0.088 N 
HETATM   17  C   UNL     1     -19.535  -3.282  22.759  1.00  0.00     0.273 C 
BRANCH  16  18
HETATM   18  C   UNL     1     -20.438  -5.578  22.705  1.00  0.00     0.277 C 
BRANCH  18  19
HETATM   19  C   UNL     1     -19.548  -6.816  22.827  1.00  0.00     0.014 C 
HETATM   20  C   UNL     1     -20.308  -8.046  23.343  1.00  0.00     0.008 C 
HETATM   21  C   UNL     1     -19.431  -9.284  23.431  1.00  0.00     0.026 C 
HETATM   22  C   UNL     1     -18.713  -9.542  22.124  1.00  0.00     0.092 C 
HETATM   23  C   UNL     1     -17.929  -8.332  21.646  1.00  0.00     0.026 C 
HETATM   24  C   UNL     1     -18.841  -7.121  21.508  1.00  0.00     0.008 C 
BRANCH  22  25
HETATM   25  N   UNL     1     -17.790 -10.683  22.260  1.00  0.00    -0.315 N 
ATOM     26  HN  UNL     1     -16.895 -10.530  22.724  1.00  0.00     0.172 HD
BRANCH  25  27
HETATM   27  S   UNL     1     -18.133 -12.177  21.704  1.00  0.00     0.226 S 
HETATM   28  O   UNL     1     -18.866 -11.957  20.495  1.00  0.00    -0.206 OA
HETATM   29  O   UNL     1     -16.891 -12.895  21.651  1.00  0.00    -0.206 OA
BRANCH  27  30
HETATM   30  C   UNL     1     -19.206 -12.918  22.923  1.00  0.00     0.158 C 
HETATM   31  C   UNL     1     -19.384 -14.410  22.732  1.00  0.00     0.023 C 
ENDBRANCH  27  30
ENDBRANCH  25  27
ENDBRANCH  22  25
ENDBRANCH  18  19
ENDBRANCH  16  18
ENDBRANCH   8   9
BRANCH   1  32
HETATM   32  O   UNL     1     -23.287   1.345  26.007  1.00  0.00    -0.304 OA
BRANCH  32  33
HETATM   33  C   UNL     1     -23.468   1.882  27.273  1.00  0.00     0.092 A 
HETATM   34  C   UNL     1     -22.491   2.702  27.797  1.00  0.00     0.041 A 
HETATM   35  C   UNL     1     -22.633   3.211  29.074  1.00  0.00     0.045 A 
HETATM   36  C   UNL     1     -23.751   2.843  29.784  1.00  0.00     0.117 A 
HETATM   37  F   UNL     1     -23.885   3.360  31.025  1.00  0.00    -0.206 F 
HETATM   38  C   UNL     1     -24.721   1.998  29.305  1.00  0.00     0.062 A 
HETATM   39  C   UNL     1     -24.568   1.464  28.025  1.00  0.00     0.069 A 
BRANCH  39  40
HETATM   40  C   UNL     1     -25.552   0.468  27.431  1.00  0.00     0.257 C 
HETATM   41  N   UNL     1     -26.630   0.839  26.716  1.00  0.00    -0.344 N 
HETATM   42  O   UNL     1     -25.327  -0.720  27.607  1.00  0.00    -0.267 OA
BRANCH  41  43
HETATM   43  C   UNL     1     -27.104   2.226  26.625  1.00  0.00     0.079 C 
HETATM   44  C   UNL     1     -28.548   2.316  27.064  1.00  0.00     0.032 C 
HETATM   45  C   UNL     1     -26.854   2.793  25.251  1.00  0.00     0.032 C 
ENDBRANCH  41  43
BRANCH  41  46
HETATM   46  C   UNL     1     -27.477  -0.155  26.041  1.00  0.00     0.122 C 
HETATM   47  C   UNL     1     -26.898  -0.656  24.752  1.00  0.00     0.026 C 
ENDBRANCH  41  46
ENDBRANCH  39  40
ENDBRANCH  32  33
ENDBRANCH   1  32
TORSDOF 11
ENDMDL
MODEL 6
REMARK VINA RESULT:    -9.009      1.327      1.883
REMARK INTER + INTRA:         -16.297
REMARK INTER:                 -14.210
REMARK INTRA:                  -2.086
REMARK UNBOUND:                -1.494
REMARK  11 active torsions:
REMARK  status: ('A' for Active; 'I' for Inactive)
REMARK    1  A    between atoms: C_2  and  N_4 
REMARK    2  A    between atoms: N_4  and  C_5 
REMARK       I    between atoms: N_4  and  C_7 
REMARK    3  A    between atoms: C_7  and  C_9 
REMARK    4  A    between atoms: C_15  and  O_16 
REMARK    5  A    between atoms: O_16  and  C_17 
REMARK    6  A    between atoms: C_24  and  N_25 
REMARK    7  A    between atoms: N_33  and  C_34 
REMARK    8  A    between atoms: C_34  and  C_35 
REMARK    9  A    between atoms: C_40  and  N_41 
REMARK   10  A    between atoms: N_41  and  S_43 
REMARK   11  A    between atoms: S_43  and  C_46 
ROOT
HETATM    1  C   UNL     1     -21.203   2.109  23.688  1.00  0.00     0.135 A 
HETATM    2  C   UNL     1     -20.957   3.453  23.553  1.00  0.00     0.130 A 
HETATM    3  N   UNL     1     -19.746   3.882  23.263  1.00  0.00    -0.359 N 
ATOM      4  HN  UNL     1     -19.540   4.880  23.200  1.00  0.00     0.166 HD
HETATM    5  C   UNL     1     -18.795   2.964  23.054  1.00  0.00     0.182 A 
HETATM    6  N   UNL     1     -18.947   1.647  23.221  1.00  0.00    -0.336 N 
ATOM      7  HN  UNL     1     -18.157   1.007  23.133  1.00  0.00     0.168 HD
HETATM    8  C   UNL     1     -20.163   1.205  23.506  1.00  0.00     0.140 A 
ENDROOT
BRANCH   8   9
HETATM    9  N   UNL     1     -20.353  -0.124  23.705  1.00  0.00    -0.363 N 
HETATM   10  C   UNL     1     -20.364  -1.200  22.728  1.00  0.00     0.135 A 
HETATM   11  C   UNL     1     -20.295  -2.155  23.997  1.00  0.00    -0.005 A 
HETATM   12  C   UNL     1     -20.382  -0.887  24.947  1.00  0.00     0.135 A 
HETATM   13  C   UNL     1     -21.493  -3.090  24.129  1.00  0.00     0.043 C 
HETATM   14  C   UNL     1     -19.018  -2.990  24.081  1.00  0.00     0.043 C 
HETATM   15  C   UNL     1     -21.491  -4.177  23.083  1.00  0.00     0.273 C 
HETATM   16  N   UNL     1     -20.220  -4.968  23.122  1.00  0.00     0.088 N 
HETATM   17  C   UNL     1     -19.012  -4.075  23.028  1.00  0.00     0.273 C 
BRANCH  16  18
HETATM   18  C   UNL     1     -20.242  -5.944  21.987  1.00  0.00     0.277 C 
BRANCH  18  19
HETATM   19  C   UNL     1     -19.299  -7.133  22.178  1.00  0.00     0.014 C 
HETATM   20  C   UNL     1     -19.852  -8.179  23.157  1.00  0.00     0.008 C 
HETATM   21  C   UNL     1     -18.929  -9.376  23.320  1.00  0.00     0.026 C 
HETATM   22  C   UNL     1     -18.555  -9.967  21.978  1.00  0.00     0.092 C 
HETATM   23  C   UNL     1     -17.968  -8.931  21.034  1.00  0.00     0.026 C 
HETATM   24  C   UNL     1     -18.935  -7.772  20.840  1.00  0.00     0.008 C 
BRANCH  22  25
HETATM   25  N   UNL     1     -17.580 -11.058  22.150  1.00  0.00    -0.315 N 
ATOM     26  HN  UNL     1     -16.611 -10.816  22.359  1.00  0.00     0.172 HD
BRANCH  25  27
HETATM   27  S   UNL     1     -17.977 -12.634  22.023  1.00  0.00     0.226 S 
HETATM   28  O   UNL     1     -16.805 -13.264  21.494  1.00  0.00    -0.206 OA
HETATM   29  O   UNL     1     -18.473 -13.043  23.307  1.00  0.00    -0.206 OA
BRANCH  27  30
HETATM   30  C   UNL     1     -19.289 -12.712  20.816  1.00  0.00     0.158 C 
HETATM   31  C   UNL     1     -20.491 -13.502  21.293  1.00  0.00     0.023 C 
ENDBRANCH  27  30
ENDBRANCH  25  27
ENDBRANCH  22  25
ENDBRANCH  18  19
ENDBRANCH  16  18
ENDBRANCH   8   9
BRANCH   1  32
HETATM   32  O   UNL     1     -22.459   1.704  23.985  1.00  0.00    -0.304 OA
BRANCH  32  33
HETATM   33  C   UNL     1     -23.058   1.977  25.206  1.00  0.00     0.092 A 
HETATM   34  C   UNL     1     -22.463   1.516  26.361  1.00  0.00     0.041 A 
HETATM   35  C   UNL     1     -23.067   1.739  27.583  1.00  0.00     0.045 A 
HETATM   36  C   UNL     1     -24.273   2.400  27.585  1.00  0.00     0.117 A 
HETATM   37  F   UNL     1     -24.845   2.626  28.787  1.00  0.00    -0.206 F 
HETATM   38  C   UNL     1     -24.910   2.837  26.449  1.00  0.00     0.062 A 
HETATM   39  C   UNL     1     -24.313   2.591  25.212  1.00  0.00     0.069 A 
BRANCH  39  40
HETATM   40  C   UNL     1     -24.970   2.975  23.896  1.00  0.00     0.257 C 
HETATM   41  N   UNL     1     -25.936   2.241  23.316  1.00  0.00    -0.344 N 
HETATM   42  O   UNL     1     -24.601   4.012  23.364  1.00  0.00    -0.267 OA
BRANCH  41  43
HETATM   43  C   UNL     1     -26.299   0.888  23.755  1.00  0.00     0.079 C 
HETATM   44  C   UNL     1     -26.404  -0.039  22.564  1.00  0.00     0.032 C 
HETATM   45  C   UNL     1     -27.539   0.911  24.611  1.00  0.00     0.032 C 
ENDBRANCH  41  43
BRANCH  41  46
HETATM   46  C   UNL     1     -26.643   2.718  22.118  1.00  0.00     0.122 C 
HETATM   47  C   UNL     1     -27.811   3.606  22.429  1.00  0.00     0.026 C 
ENDBRANCH  41  46
ENDBRANCH  39  40
ENDBRANCH  32  33
ENDBRANCH   1  32
TORSDOF 11
ENDMDL
MODEL 7
REMARK VINA RESULT:    -8.923      2.713      3.742
REMARK INTER + INTRA:         -16.155
REMARK INTER:                 -14.373
REMARK INTRA:                  -1.782
REMARK UNBOUND:                -1.494
REMARK  11 active torsions:
REMARK  status: ('A' for Active; 'I' for Inactive)
REMARK    1  A    between atoms: C_2  and  N_4 
REMARK    2  A    between atoms: N_4  and  C_5 
REMARK       I    between atoms: N_4  and  C_7 
REMARK    3  A    between atoms: C_7  and  C_9 
REMARK    4  A    between atoms: C_15  and  O_16 
REMARK    5  A    between atoms: O_16  and  C_17 
REMARK    6  A    between atoms: C_24  and  N_25 
REMARK    7  A    between atoms: N_33  and  C_34 
REMARK    8  A    between atoms: C_34  and  C_35 
REMARK    9  A    between atoms: C_40  and  N_41 
REMARK   10  A    between atoms: N_41  and  S_43 
REMARK   11  A    between atoms: S_43  and  C_46 
ROOT
HETATM    1  C   UNL     1     -22.624   1.502  23.428  1.00  0.00     0.135 A 
HETATM    2  C   UNL     1     -22.825   2.843  23.221  1.00  0.00     0.130 A 
HETATM    3  N   UNL     1     -21.827   3.694  23.351  1.00  0.00    -0.359 N 
ATOM      4  HN  UNL     1     -21.970   4.698  23.240  1.00  0.00     0.166 HD
HETATM    5  C   UNL     1     -20.618   3.193  23.635  1.00  0.00     0.182 A 
HETATM    6  N   UNL     1     -20.360   1.910  23.903  1.00  0.00    -0.336 N 
ATOM      7  HN  UNL     1     -19.432   1.607  24.202  1.00  0.00     0.168 HD
HETATM    8  C   UNL     1     -21.356   1.046  23.767  1.00  0.00     0.140 A 
ENDROOT
BRANCH   8   9
HETATM    9  N   UNL     1     -21.138  -0.262  24.053  1.00  0.00    -0.363 N 
HETATM   10  C   UNL     1     -21.315  -1.423  23.197  1.00  0.00     0.135 A 
HETATM   11  C   UNL     1     -20.506  -2.196  24.326  1.00  0.00    -0.005 A 
HETATM   12  C   UNL     1     -20.470  -0.870  25.198  1.00  0.00     0.135 A 
HETATM   13  C   UNL     1     -21.293  -3.326  24.983  1.00  0.00     0.043 C 
HETATM   14  C   UNL     1     -19.160  -2.750  23.862  1.00  0.00     0.043 C 
HETATM   15  C   UNL     1     -21.484  -4.503  24.059  1.00  0.00     0.273 C 
HETATM   16  N   UNL     1     -20.171  -5.021  23.556  1.00  0.00     0.088 N 
HETATM   17  C   UNL     1     -19.351  -3.924  22.930  1.00  0.00     0.273 C 
BRANCH  16  18
HETATM   18  C   UNL     1     -20.446  -6.105  22.560  1.00  0.00     0.277 C 
BRANCH  18  19
HETATM   19  C   UNL     1     -19.452  -7.266  22.623  1.00  0.00     0.014 C 
HETATM   20  C   UNL     1     -19.921  -8.401  23.544  1.00  0.00     0.008 C 
HETATM   21  C   UNL     1     -18.948  -9.568  23.579  1.00  0.00     0.026 C 
HETATM   22  C   UNL     1     -18.613 -10.045  22.183  1.00  0.00     0.092 C 
HETATM   23  C   UNL     1     -18.109  -8.921  21.293  1.00  0.00     0.026 C 
HETATM   24  C   UNL     1     -19.126  -7.791  21.227  1.00  0.00     0.008 C 
BRANCH  22  25
HETATM   25  N   UNL     1     -17.592 -11.106  22.232  1.00  0.00    -0.315 N 
ATOM     26  HN  UNL     1     -16.622 -10.839  22.401  1.00  0.00     0.172 HD
BRANCH  25  27
HETATM   27  S   UNL     1     -17.939 -12.686  22.028  1.00  0.00     0.226 S 
HETATM   28  O   UNL     1     -16.733 -13.261  21.514  1.00  0.00    -0.206 OA
HETATM   29  O   UNL     1     -18.465 -13.160  23.277  1.00  0.00    -0.206 OA
BRANCH  27  30
HETATM   30  C   UNL     1     -19.209 -12.750  20.775  1.00  0.00     0.158 C 
HETATM   31  C   UNL     1     -19.190 -14.035  19.973  1.00  0.00     0.023 C 
ENDBRANCH  27  30
ENDBRANCH  25  27
ENDBRANCH  22  25
ENDBRANCH  18  19
ENDBRANCH  16  18
ENDBRANCH   8   9
BRANCH   1  32
HETATM   32  O   UNL     1     -23.672   0.657  23.285  1.00  0.00    -0.304 OA
BRANCH  32  33
HETATM   33  C   UNL     1     -24.399   0.570  22.107  1.00  0.00     0.092 A 
HETATM   34  C   UNL     1     -23.724   0.511  20.906  1.00  0.00     0.041 A 
HETATM   35  C   UNL     1     -24.431   0.469  19.720  1.00  0.00     0.045 A 
HETATM   36  C   UNL     1     -25.803   0.519  19.796  1.00  0.00     0.117 A 
HETATM   37  F   UNL     1     -26.483   0.461  18.631  1.00  0.00    -0.206 F 
HETATM   38  C   UNL     1     -26.504   0.617  20.973  1.00  0.00     0.062 A 
HETATM   39  C   UNL     1     -25.790   0.684  22.171  1.00  0.00     0.069 A 
BRANCH  39  40
HETATM   40  C   UNL     1     -26.470   0.861  23.519  1.00  0.00     0.257 C 
HETATM   41  N   UNL     1     -26.937   2.044  23.957  1.00  0.00    -0.344 N 
HETATM   42  O   UNL     1     -26.606  -0.134  24.216  1.00  0.00    -0.267 OA
BRANCH  41  43
HETATM   43  C   UNL     1     -26.642   3.324  23.300  1.00  0.00     0.079 C 
HETATM   44  C   UNL     1     -26.203   4.348  24.323  1.00  0.00     0.032 C 
HETATM   45  C   UNL     1     -27.802   3.777  22.452  1.00  0.00     0.032 C 
ENDBRANCH  41  43
BRANCH  41  46
HETATM   46  C   UNL     1     -27.712   2.147  25.201  1.00  0.00     0.122 C 
HETATM   47  C   UNL     1     -29.140   1.713  25.053  1.00  0.00     0.026 C 
ENDBRANCH  41  46
ENDBRANCH  39  40
ENDBRANCH  32  33
ENDBRANCH   1  32
TORSDOF 11
ENDMDL
MODEL 8
REMARK VINA RESULT:    -8.740      6.154     11.129
REMARK INTER + INTRA:         -15.855
REMARK INTER:                 -13.932
REMARK INTRA:                  -1.923
REMARK UNBOUND:                -1.494
REMARK  11 active torsions:
REMARK  status: ('A' for Active; 'I' for Inactive)
REMARK    1  A    between atoms: C_2  and  N_4 
REMARK    2  A    between atoms: N_4  and  C_5 
REMARK       I    between atoms: N_4  and  C_7 
REMARK    3  A    between atoms: C_7  and  C_9 
REMARK    4  A    between atoms: C_15  and  O_16 
REMARK    5  A    between atoms: O_16  and  C_17 
REMARK    6  A    between atoms: C_24  and  N_25 
REMARK    7  A    between atoms: N_33  and  C_34 
REMARK    8  A    between atoms: C_34  and  C_35 
REMARK    9  A    between atoms: C_40  and  N_41 
REMARK   10  A    between atoms: N_41  and  S_43 
REMARK   11  A    between atoms: S_43  and  C_46 
ROOT
HETATM    1  C   UNL     1     -22.955   0.167  20.575  1.00  0.00     0.135 A 
HETATM    2  C   UNL     1     -22.226  -0.435  19.581  1.00  0.00     0.130 A 
HETATM    3  N   UNL     1     -22.564  -0.275  18.318  1.00  0.00    -0.359 N 
ATOM      4  HN  UNL     1     -22.056  -0.749  17.571  1.00  0.00     0.166 HD
HETATM    5  C   UNL     1     -23.599   0.530  18.049  1.00  0.00     0.182 A 
HETATM    6  N   UNL     1     -24.386   1.103  18.964  1.00  0.00    -0.336 N 
ATOM      7  HN  UNL     1     -25.214   1.633  18.694  1.00  0.00     0.168 HD
HETATM    8  C   UNL     1     -24.049   0.954  20.237  1.00  0.00     0.140 A 
ENDROOT
BRANCH   8   9
HETATM    9  N   UNL     1     -24.836   1.502  21.197  1.00  0.00    -0.363 N 
HETATM   10  C   UNL     1     -26.057   0.975  21.784  1.00  0.00     0.135 A 
HETATM   11  C   UNL     1     -25.857   2.123  22.867  1.00  0.00    -0.005 A 
HETATM   12  C   UNL     1     -24.591   2.647  22.067  1.00  0.00     0.135 A 
HETATM   13  C   UNL     1     -27.001   3.133  22.910  1.00  0.00     0.043 C 
HETATM   14  C   UNL     1     -25.611   1.609  24.284  1.00  0.00     0.043 C 
HETATM   15  C   UNL     1     -28.260   2.546  23.498  1.00  0.00     0.273 C 
HETATM   16  N   UNL     1     -28.017   1.992  24.868  1.00  0.00     0.088 N 
HETATM   17  C   UNL     1     -26.871   1.015  24.870  1.00  0.00     0.273 C 
BRANCH  16  18
HETATM   18  C   UNL     1     -29.275   1.327  25.334  1.00  0.00     0.277 C 
BRANCH  18  19
HETATM   19  C   UNL     1     -29.530   1.474  26.835  1.00  0.00     0.014 C 
HETATM   20  C   UNL     1     -29.703   0.123  27.543  1.00  0.00     0.008 C 
HETATM   21  C   UNL     1     -29.923   0.269  29.040  1.00  0.00     0.026 C 
HETATM   22  C   UNL     1     -28.849   1.130  29.670  1.00  0.00     0.092 C 
HETATM   23  C   UNL     1     -28.717   2.482  28.988  1.00  0.00     0.026 C 
HETATM   24  C   UNL     1     -28.439   2.308  27.502  1.00  0.00     0.008 C 
BRANCH  22  25
HETATM   25  N   UNL     1     -29.136   1.346  31.100  1.00  0.00    -0.315 N 
ATOM     26  HN  UNL     1     -29.953   1.902  31.353  1.00  0.00     0.172 HD
BRANCH  25  27
HETATM   27  S   UNL     1     -28.208   0.738  32.295  1.00  0.00     0.226 S 
HETATM   28  O   UNL     1     -28.114   1.795  33.256  1.00  0.00    -0.206 OA
HETATM   29  O   UNL     1     -28.798  -0.512  32.683  1.00  0.00    -0.206 OA
BRANCH  27  30
HETATM   30  C   UNL     1     -26.603   0.450  31.570  1.00  0.00     0.158 C 
HETATM   31  C   UNL     1     -25.764   1.706  31.461  1.00  0.00     0.023 C 
ENDBRANCH  27  30
ENDBRANCH  25  27
ENDBRANCH  22  25
ENDBRANCH  18  19
ENDBRANCH  16  18
ENDBRANCH   8   9
BRANCH   1  32
HETATM   32  O   UNL     1     -22.578  -0.018  21.862  1.00  0.00    -0.304 OA
BRANCH  32  33
HETATM   33  C   UNL     1     -21.591  -0.923  22.224  1.00  0.00     0.092 A 
HETATM   34  C   UNL     1     -21.917  -2.258  22.339  1.00  0.00     0.041 A 
HETATM   35  C   UNL     1     -20.959  -3.168  22.741  1.00  0.00     0.045 A 
HETATM   36  C   UNL     1     -19.708  -2.683  23.042  1.00  0.00     0.117 A 
HETATM   37  F   UNL     1     -18.776  -3.585  23.418  1.00  0.00    -0.206 F 
HETATM   38  C   UNL     1     -19.363  -1.355  22.975  1.00  0.00     0.062 A 
HETATM   39  C   UNL     1     -20.336  -0.431  22.592  1.00  0.00     0.069 A 
BRANCH  39  40
HETATM   40  C   UNL     1     -20.072   1.065  22.552  1.00  0.00     0.257 C 
HETATM   41  N   UNL     1     -20.077   1.842  23.650  1.00  0.00    -0.344 N 
HETATM   42  O   UNL     1     -19.829   1.565  21.463  1.00  0.00    -0.267 OA
BRANCH  41  43
HETATM   43  C   UNL     1     -20.559   1.388  24.961  1.00  0.00     0.079 C 
HETATM   44  C   UNL     1     -22.058   1.570  25.059  1.00  0.00     0.032 C 
HETATM   45  C   UNL     1     -19.796   2.052  26.078  1.00  0.00     0.032 C 
ENDBRANCH  41  43
BRANCH  41  46
HETATM   46  C   UNL     1     -19.679   3.255  23.588  1.00  0.00     0.122 C 
HETATM   47  C   UNL     1     -20.805   4.178  23.228  1.00  0.00     0.026 C 
ENDBRANCH  41  46
ENDBRANCH  39  40
ENDBRANCH  32  33
ENDBRANCH   1  32
TORSDOF 11
ENDMDL
MODEL 9
REMARK VINA RESULT:    -8.712      2.153      3.218
REMARK INTER + INTRA:         -15.808
REMARK INTER:                 -13.981
REMARK INTRA:                  -1.826
REMARK UNBOUND:                -1.494
REMARK  11 active torsions:
REMARK  status: ('A' for Active; 'I' for Inactive)
REMARK    1  A    between atoms: C_2  and  N_4 
REMARK    2  A    between atoms: N_4  and  C_5 
REMARK       I    between atoms: N_4  and  C_7 
REMARK    3  A    between atoms: C_7  and  C_9 
REMARK    4  A    between atoms: C_15  and  O_16 
REMARK    5  A    between atoms: O_16  and  C_17 
REMARK    6  A    between atoms: C_24  and  N_25 
REMARK    7  A    between atoms: N_33  and  C_34 
REMARK    8  A    between atoms: C_34  and  C_35 
REMARK    9  A    between atoms: C_40  and  N_41 
REMARK   10  A    between atoms: N_41  and  S_43 
REMARK   11  A    between atoms: S_43  and  C_46 
ROOT
HETATM    1  C   UNL     1     -21.066   2.192  23.805  1.00  0.00     0.135 A 
HETATM    2  C   UNL     1     -20.730   3.522  23.838  1.00  0.00     0.130 A 
HETATM    3  N   UNL     1     -19.502   3.906  23.555  1.00  0.00    -0.359 N 
ATOM      4  HN  UNL     1     -19.228   4.887  23.615  1.00  0.00     0.166 HD
HETATM    5  C   UNL     1     -18.627   2.963  23.186  1.00  0.00     0.182 A 
HETATM    6  N   UNL     1     -18.866   1.648  23.184  1.00  0.00    -0.336 N 
ATOM      7  HN  UNL     1     -18.128   0.975  22.978  1.00  0.00     0.168 HD
HETATM    8  C   UNL     1     -20.101   1.254  23.460  1.00  0.00     0.140 A 
ENDROOT
BRANCH   8   9
HETATM    9  N   UNL     1     -20.378  -0.074  23.490  1.00  0.00    -0.363 N 
HETATM   10  C   UNL     1     -20.116  -1.083  22.478  1.00  0.00     0.135 A 
HETATM   11  C   UNL     1     -20.467  -2.121  23.631  1.00  0.00    -0.005 A 
HETATM   12  C   UNL     1     -20.809  -0.914  24.602  1.00  0.00     0.135 A 
HETATM   13  C   UNL     1     -21.672  -3.002  23.319  1.00  0.00     0.043 C 
HETATM   14  C   UNL     1     -19.301  -3.020  24.037  1.00  0.00     0.043 C 
HETATM   15  C   UNL     1     -21.376  -4.019  22.244  1.00  0.00     0.273 C 
HETATM   16  N   UNL     1     -20.201  -4.872  22.609  1.00  0.00     0.088 N 
HETATM   17  C   UNL     1     -18.999  -4.034  22.957  1.00  0.00     0.273 C 
BRANCH  16  18
HETATM   18  C   UNL     1     -19.897  -5.771  21.451  1.00  0.00     0.277 C 
BRANCH  18  19
HETATM   19  C   UNL     1     -19.075  -7.004  21.826  1.00  0.00     0.014 C 
HETATM   20  C   UNL     1     -19.721  -7.832  22.946  1.00  0.00     0.008 C 
HETATM   21  C   UNL     1     -18.919  -9.075  23.295  1.00  0.00     0.026 C 
HETATM   22  C   UNL     1     -18.612  -9.894  22.060  1.00  0.00     0.092 C 
HETATM   23  C   UNL     1     -17.933  -9.074  20.976  1.00  0.00     0.026 C 
HETATM   24  C   UNL     1     -18.783  -7.869  20.602  1.00  0.00     0.008 C 
BRANCH  22  25
HETATM   25  N   UNL     1     -17.748 -11.038  22.402  1.00  0.00    -0.315 N 
ATOM     26  HN  UNL     1     -16.875 -10.856  22.897  1.00  0.00     0.172 HD
BRANCH  25  27
HETATM   27  S   UNL     1     -18.122 -12.580  22.028  1.00  0.00     0.226 S 
HETATM   28  O   UNL     1     -16.885 -13.162  21.602  1.00  0.00    -0.206 OA
HETATM   29  O   UNL     1     -18.801 -13.131  23.166  1.00  0.00    -0.206 OA
BRANCH  27  30
HETATM   30  C   UNL     1     -19.243 -12.489  20.642  1.00  0.00     0.158 C 
HETATM   31  C   UNL     1     -20.701 -12.533  21.052  1.00  0.00     0.023 C 
ENDBRANCH  27  30
ENDBRANCH  25  27
ENDBRANCH  22  25
ENDBRANCH  18  19
ENDBRANCH  16  18
ENDBRANCH   8   9
BRANCH   1  32
HETATM   32  O   UNL     1     -22.338   1.834  24.101  1.00  0.00    -0.304 OA
BRANCH  32  33
HETATM   33  C   UNL     1     -23.432   2.590  23.707  1.00  0.00     0.092 A 
HETATM   34  C   UNL     1     -23.828   3.652  24.491  1.00  0.00     0.041 A 
HETATM   35  C   UNL     1     -24.943   4.389  24.138  1.00  0.00     0.045 A 
HETATM   36  C   UNL     1     -25.634   3.999  23.015  1.00  0.00     0.117 A 
HETATM   37  F   UNL     1     -26.712   4.737  22.673  1.00  0.00    -0.206 F 
HETATM   38  C   UNL     1     -25.287   2.923  22.236  1.00  0.00     0.062 A 
HETATM   39  C   UNL     1     -24.176   2.163  22.604  1.00  0.00     0.069 A 
BRANCH  39  40
HETATM   40  C   UNL     1     -23.751   0.915  21.846  1.00  0.00     0.257 C 
HETATM   41  N   UNL     1     -24.371  -0.272  21.980  1.00  0.00    -0.344 N 
HETATM   42  O   UNL     1     -22.812   1.019  21.071  1.00  0.00    -0.267 OA
BRANCH  41  43
HETATM   43  C   UNL     1     -25.360  -0.555  23.027  1.00  0.00     0.079 C 
HETATM   44  C   UNL     1     -25.093  -1.909  23.647  1.00  0.00     0.032 C 
HETATM   45  C   UNL     1     -26.764  -0.400  22.501  1.00  0.00     0.032 C 
ENDBRANCH  41  43
BRANCH  41  46
HETATM   46  C   UNL     1     -24.021  -1.416  21.127  1.00  0.00     0.122 C 
HETATM   47  C   UNL     1     -24.755  -1.433  19.819  1.00  0.00     0.026 C 
ENDBRANCH  41  46
ENDBRANCH  39  40
ENDBRANCH  32  33
ENDBRANCH   1  32
TORSDOF 11
ENDMDL
MODEL 10
REMARK VINA RESULT:    -8.699      6.476     10.186
REMARK INTER + INTRA:         -15.787
REMARK INTER:                 -14.028
REMARK INTRA:                  -1.759
REMARK UNBOUND:                -1.494
REMARK  11 active torsions:
REMARK  status: ('A' for Active; 'I' for Inactive)
REMARK    1  A    between atoms: C_2  and  N_4 
REMARK    2  A    between atoms: N_4  and  C_5 
REMARK       I    between atoms: N_4  and  C_7 
REMARK    3  A    between atoms: C_7  and  C_9 
REMARK    4  A    between atoms: C_15  and  O_16 
REMARK    5  A    between atoms: O_16  and  C_17 
REMARK    6  A    between atoms: C_24  and  N_25 
REMARK    7  A    between atoms: N_33  and  C_34 
REMARK    8  A    between atoms: C_34  and  C_35 
REMARK    9  A    between atoms: C_40  and  N_41 
REMARK   10  A    between atoms: N_41  and  S_43 
REMARK   11  A    between atoms: S_43  and  C_46 
ROOT
HETATM    1  C   UNL     1     -24.577   3.540  25.163  1.00  0.00     0.135 A 
HETATM    2  C   UNL     1     -23.806   4.531  24.609  1.00  0.00     0.130 A 
HETATM    3  N   UNL     1     -24.365   5.632  24.148  1.00  0.00    -0.359 N 
ATOM      4  HN  UNL     1     -23.809   6.358  23.698  1.00  0.00     0.166 HD
HETATM    5  C   UNL     1     -25.690   5.761  24.291  1.00  0.00     0.182 A 
HETATM    6  N   UNL     1     -26.509   4.818  24.767  1.00  0.00    -0.336 N 
ATOM      7  HN  UNL     1     -27.521   4.945  24.765  1.00  0.00     0.168 HD
HETATM    8  C   UNL     1     -25.954   3.712  25.240  1.00  0.00     0.140 A 
ENDROOT
BRANCH   8   9
HETATM    9  N   UNL     1     -26.754   2.722  25.711  1.00  0.00    -0.363 N 
HETATM   10  C   UNL     1     -26.970   2.301  27.086  1.00  0.00     0.135 A 
HETATM   11  C   UNL     1     -28.191   1.478  26.486  1.00  0.00    -0.005 A 
HETATM   12  C   UNL     1     -27.781   1.945  25.027  1.00  0.00     0.135 A 
HETATM   13  C   UNL     1     -28.075  -0.030  26.690  1.00  0.00     0.043 C 
HETATM   14  C   UNL     1     -29.559   1.931  26.994  1.00  0.00     0.043 C 
HETATM   15  C   UNL     1     -28.275  -0.430  28.131  1.00  0.00     0.273 C 
HETATM   16  N   UNL     1     -29.592   0.055  28.654  1.00  0.00     0.088 N 
HETATM   17  C   UNL     1     -29.757   1.536  28.439  1.00  0.00     0.273 C 
BRANCH  16  18
HETATM   18  C   UNL     1     -29.667  -0.276  30.113  1.00  0.00     0.277 C 
BRANCH  18  19
HETATM   19  C   UNL     1     -28.514  -1.152  30.606  1.00  0.00     0.014 C 
HETATM   20  C   UNL     1     -27.722  -0.503  31.750  1.00  0.00     0.008 C 
HETATM   21  C   UNL     1     -26.598  -1.390  32.261  1.00  0.00     0.026 C 
HETATM   22  C   UNL     1     -27.104  -2.773  32.608  1.00  0.00     0.092 C 
HETATM   23  C   UNL     1     -27.849  -3.422  31.453  1.00  0.00     0.026 C 
HETATM   24  C   UNL     1     -29.006  -2.544  30.999  1.00  0.00     0.008 C 
BRANCH  22  25
HETATM   25  N   UNL     1     -25.986  -3.647  33.002  1.00  0.00    -0.315 N 
ATOM     26  HN  UNL     1     -25.169  -3.695  32.394  1.00  0.00     0.172 HD
BRANCH  25  27
HETATM   27  S   UNL     1     -25.993  -4.541  34.365  1.00  0.00     0.226 S 
HETATM   28  O   UNL     1     -24.644  -4.999  34.508  1.00  0.00    -0.206 OA
HETATM   29  O   UNL     1     -26.569  -3.723  35.396  1.00  0.00    -0.206 OA
BRANCH  27  30
HETATM   30  C   UNL     1     -27.060  -5.932  34.032  1.00  0.00     0.158 C 
HETATM   31  C   UNL     1     -26.716  -6.652  32.745  1.00  0.00     0.023 C 
ENDBRANCH  27  30
ENDBRANCH  25  27
ENDBRANCH  22  25
ENDBRANCH  18  19
ENDBRANCH  16  18
ENDBRANCH   8   9
BRANCH   1  32
HETATM   32  O   UNL     1     -23.968   2.425  25.628  1.00  0.00    -0.304 OA
BRANCH  32  33
HETATM   33  C   UNL     1     -22.956   2.471  26.574  1.00  0.00     0.092 A 
HETATM   34  C   UNL     1     -23.145   3.214  27.720  1.00  0.00     0.041 A 
HETATM   35  C   UNL     1     -22.131   3.309  28.654  1.00  0.00     0.045 A 
HETATM   36  C   UNL     1     -20.947   2.668  28.374  1.00  0.00     0.117 A 
HETATM   37  F   UNL     1     -19.970   2.755  29.302  1.00  0.00    -0.206 F 
HETATM   38  C   UNL     1     -20.714   1.953  27.225  1.00  0.00     0.062 A 
HETATM   39  C   UNL     1     -21.729   1.876  26.269  1.00  0.00     0.069 A 
BRANCH  39  40
HETATM   40  C   UNL     1     -21.546   1.166  24.937  1.00  0.00     0.257 C 
HETATM   41  N   UNL     1     -20.754   1.637  23.957  1.00  0.00    -0.344 N 
HETATM   42  O   UNL     1     -22.141   0.111  24.775  1.00  0.00    -0.267 OA
BRANCH  41  43
HETATM   43  C   UNL     1     -20.168   2.983  23.966  1.00  0.00     0.079 C 
HETATM   44  C   UNL     1     -20.879   3.871  22.969  1.00  0.00     0.032 C 
HETATM   45  C   UNL     1     -18.675   2.925  23.763  1.00  0.00     0.032 C 
ENDBRANCH  41  43
BRANCH  41  46
HETATM   46  C   UNL     1     -20.494   0.852  22.742  1.00  0.00     0.122 C 
HETATM   47  C   UNL     1     -19.689  -0.389  22.994  1.00  0.00     0.026 C 
ENDBRANCH  41  46
ENDBRANCH  39  40
ENDBRANCH  32  33
ENDBRANCH   1  32
TORSDOF 11
ENDMDL
MODEL 11
REMARK VINA RESULT:    -8.695      2.139      3.723
REMARK INTER + INTRA:         -15.781
REMARK INTER:                 -14.113
REMARK INTRA:                  -1.667
REMARK UNBOUND:                -1.494
REMARK  11 active torsions:
REMARK  status: ('A' for Active; 'I' for Inactive)
REMARK    1  A    between atoms: C_2  and  N_4 
REMARK    2  A    between atoms: N_4  and  C_5 
REMARK       I    between atoms: N_4  and  C_7 
REMARK    3  A    between atoms: C_7  and  C_9 
REMARK    4  A    between atoms: C_15  and  O_16 
REMARK    5  A    between atoms: O_16  and  C_17 
REMARK    6  A    between atoms: C_24  and  N_25 
REMARK    7  A    between atoms: N_33  and  C_34 
REMARK    8  A    between atoms: C_34  and  C_35 
REMARK    9  A    between atoms: C_40  and  N_41 
REMARK   10  A    between atoms: N_41  and  S_43 
REMARK   11  A    between atoms: S_43  and  C_46 
ROOT
HETATM    1  C   UNL     1     -23.673   0.209  25.714  1.00  0.00     0.135 A 
HETATM    2  C   UNL     1     -24.494   0.926  26.547  1.00  0.00     0.130 A 
HETATM    3  N   UNL     1     -24.092   1.254  27.758  1.00  0.00    -0.359 N 
ATOM      4  HN  UNL     1     -24.707   1.751  28.403  1.00  0.00     0.166 HD
HETATM    5  C   UNL     1     -22.849   0.909  28.114  1.00  0.00     0.182 A 
HETATM    6  N   UNL     1     -22.016   0.165  27.380  1.00  0.00    -0.336 N 
ATOM      7  HN  UNL     1     -21.114  -0.140  27.746  1.00  0.00     0.168 HD
HETATM    8  C   UNL     1     -22.409  -0.162  26.157  1.00  0.00     0.140 A 
ENDROOT
BRANCH   8   9
HETATM    9  N   UNL     1     -21.601  -0.936  25.389  1.00  0.00    -0.363 N 
HETATM   10  C   UNL     1     -21.885  -2.224  24.778  1.00  0.00     0.135 A 
HETATM   11  C   UNL     1     -20.546  -1.965  23.960  1.00  0.00    -0.005 A 
HETATM   12  C   UNL     1     -20.315  -0.623  24.775  1.00  0.00     0.135 A 
HETATM   13  C   UNL     1     -19.463  -3.012  24.207  1.00  0.00     0.043 C 
HETATM   14  C   UNL     1     -20.751  -1.827  22.453  1.00  0.00     0.043 C 
HETATM   15  C   UNL     1     -19.802  -4.344  23.584  1.00  0.00     0.273 C 
HETATM   16  N   UNL     1     -20.056  -4.210  22.115  1.00  0.00     0.088 N 
HETATM   17  C   UNL     1     -21.097  -3.160  21.830  1.00  0.00     0.273 C 
BRANCH  16  18
HETATM   18  C   UNL     1     -20.498  -5.542  21.593  1.00  0.00     0.277 C 
BRANCH  18  19
HETATM   19  C   UNL     1     -19.574  -6.696  21.987  1.00  0.00     0.014 C 
HETATM   20  C   UNL     1     -20.258  -7.720  22.904  1.00  0.00     0.008 C 
HETATM   21  C   UNL     1     -19.348  -8.882  23.267  1.00  0.00     0.026 C 
HETATM   22  C   UNL     1     -18.744  -9.512  22.030  1.00  0.00     0.092 C 
HETATM   23  C   UNL     1     -18.032  -8.496  21.153  1.00  0.00     0.026 C 
HETATM   24  C   UNL     1     -18.979  -7.374  20.754  1.00  0.00     0.008 C 
BRANCH  22  25
HETATM   25  N   UNL     1     -17.787 -10.568  22.406  1.00  0.00    -0.315 N 
ATOM     26  HN  UNL     1     -16.960 -10.305  22.942  1.00  0.00     0.172 HD
BRANCH  25  27
HETATM   27  S   UNL     1     -17.988 -12.135  22.004  1.00  0.00     0.226 S 
HETATM   28  O   UNL     1     -18.752 -12.106  20.794  1.00  0.00    -0.206 OA
HETATM   29  O   UNL     1     -16.682 -12.732  21.994  1.00  0.00    -0.206 OA
BRANCH  27  30
HETATM   30  C   UNL     1     -18.969 -12.853  23.310  1.00  0.00     0.158 C 
HETATM   31  C   UNL     1     -19.636 -14.153  22.909  1.00  0.00     0.023 C 
ENDBRANCH  27  30
ENDBRANCH  25  27
ENDBRANCH  22  25
ENDBRANCH  18  19
ENDBRANCH  16  18
ENDBRANCH   8   9
BRANCH   1  32
HETATM   32  O   UNL     1     -24.118  -0.109  24.476  1.00  0.00    -0.304 OA
BRANCH  32  33
HETATM   33  C   UNL     1     -24.981   0.711  23.765  1.00  0.00     0.092 A 
HETATM   34  C   UNL     1     -26.308   0.352  23.655  1.00  0.00     0.041 A 
HETATM   35  C   UNL     1     -27.173   1.133  22.913  1.00  0.00     0.045 A 
HETATM   36  C   UNL     1     -26.651   2.237  22.283  1.00  0.00     0.117 A 
HETATM   37  F   UNL     1     -27.510   3.001  21.574  1.00  0.00    -0.206 F 
HETATM   38  C   UNL     1     -25.328   2.600  22.341  1.00  0.00     0.062 A 
HETATM   39  C   UNL     1     -24.447   1.799  23.069  1.00  0.00     0.069 A 
BRANCH  39  40
HETATM   40  C   UNL     1     -22.954   2.078  23.139  1.00  0.00     0.257 C 
HETATM   41  N   UNL     1     -22.402   2.894  24.054  1.00  0.00    -0.344 N 
HETATM   42  O   UNL     1     -22.237   1.512  22.327  1.00  0.00    -0.267 OA
BRANCH  41  43
HETATM   43  C   UNL     1     -23.183   3.777  24.929  1.00  0.00     0.079 C 
HETATM   44  C   UNL     1     -23.522   5.063  24.208  1.00  0.00     0.032 C 
HETATM   45  C   UNL     1     -22.483   3.992  26.247  1.00  0.00     0.032 C 
ENDBRANCH  41  43
BRANCH  41  46
HETATM   46  C   UNL     1     -20.943   3.028  24.177  1.00  0.00     0.122 C 
HETATM   47  C   UNL     1     -20.362   4.083  23.283  1.00  0.00     0.026 C 
ENDBRANCH  41  46
ENDBRANCH  39  40
ENDBRANCH  32  33
ENDBRANCH   1  32
TORSDOF 11
ENDMDL
MODEL 12
REMARK VINA RESULT:    -8.694      6.493      8.360
REMARK INTER + INTRA:         -15.779
REMARK INTER:                 -13.426
REMARK INTRA:                  -2.353
REMARK UNBOUND:                -1.494
REMARK  11 active torsions:
REMARK  status: ('A' for Active; 'I' for Inactive)
REMARK    1  A    between atoms: C_2  and  N_4 
REMARK    2  A    between atoms: N_4  and  C_5 
REMARK       I    between atoms: N_4  and  C_7 
REMARK    3  A    between atoms: C_7  and  C_9 
REMARK    4  A    between atoms: C_15  and  O_16 
REMARK    5  A    between atoms: O_16  and  C_17 
REMARK    6  A    between atoms: C_24  and  N_25 
REMARK    7  A    between atoms: N_33  and  C_34 
REMARK    8  A    between atoms: C_34  and  C_35 
REMARK    9  A    between atoms: C_40  and  N_41 
REMARK   10  A    between atoms: N_41  and  S_43 
REMARK   11  A    between atoms: S_43  and  C_46 
ROOT
HETATM    1  C   UNL     1     -24.484   2.521  28.464  1.00  0.00     0.135 A 
HETATM    2  C   UNL     1     -23.966   2.449  29.732  1.00  0.00     0.130 A 
HETATM    3  N   UNL     1     -24.592   1.766  30.669  1.00  0.00    -0.359 N 
ATOM      4  HN  UNL     1     -24.241   1.738  31.626  1.00  0.00     0.166 HD
HETATM    5  C   UNL     1     -25.707   1.112  30.320  1.00  0.00     0.182 A 
HETATM    6  N   UNL     1     -26.298   1.181  29.124  1.00  0.00    -0.336 N 
ATOM      7  HN  UNL     1     -27.196   0.731  28.949  1.00  0.00     0.168 HD
HETATM    8  C   UNL     1     -25.671   1.860  28.173  1.00  0.00     0.140 A 
ENDROOT
BRANCH   8   9
HETATM    9  N   UNL     1     -26.250   1.972  26.951  1.00  0.00    -0.363 N 
HETATM   10  C   UNL     1     -26.147   1.080  25.808  1.00  0.00     0.135 A 
HETATM   11  C   UNL     1     -27.364   1.922  25.227  1.00  0.00    -0.005 A 
HETATM   12  C   UNL     1     -27.300   2.875  26.494  1.00  0.00     0.135 A 
HETATM   13  C   UNL     1     -27.046   2.638  23.918  1.00  0.00     0.043 C 
HETATM   14  C   UNL     1     -28.647   1.116  25.038  1.00  0.00     0.043 C 
HETATM   15  C   UNL     1     -26.916   1.682  22.758  1.00  0.00     0.273 C 
HETATM   16  N   UNL     1     -28.150   0.850  22.597  1.00  0.00     0.088 N 
HETATM   17  C   UNL     1     -28.515   0.153  23.881  1.00  0.00     0.273 C 
BRANCH  16  18
HETATM   18  C   UNL     1     -27.903  -0.148  21.509  1.00  0.00     0.277 C 
BRANCH  18  19
HETATM   19  C   UNL     1     -26.472  -0.128  20.968  1.00  0.00     0.014 C 
HETATM   20  C   UNL     1     -25.756  -1.476  21.129  1.00  0.00     0.008 C 
HETATM   21  C   UNL     1     -24.346  -1.464  20.561  1.00  0.00     0.026 C 
HETATM   22  C   UNL     1     -24.335  -0.960  19.134  1.00  0.00     0.092 C 
HETATM   23  C   UNL     1     -25.008   0.395  18.994  1.00  0.00     0.026 C 
HETATM   24  C   UNL     1     -26.437   0.342  19.515  1.00  0.00     0.008 C 
BRANCH  22  25
HETATM   25  N   UNL     1     -22.952  -0.857  18.635  1.00  0.00    -0.315 N 
ATOM     26  HN  UNL     1     -22.221  -0.573  19.287  1.00  0.00     0.172 HD
BRANCH  25  27
HETATM   27  S   UNL     1     -22.537  -1.176  17.092  1.00  0.00     0.226 S 
HETATM   28  O   UNL     1     -22.566   0.096  16.436  1.00  0.00    -0.206 OA
HETATM   29  O   UNL     1     -21.305  -1.913  17.136  1.00  0.00    -0.206 OA
BRANCH  27  30
HETATM   30  C   UNL     1     -23.836  -2.211  16.439  1.00  0.00     0.158 C 
HETATM   31  C   UNL     1     -24.694  -1.510  15.406  1.00  0.00     0.023 C 
ENDBRANCH  27  30
ENDBRANCH  25  27
ENDBRANCH  22  25
ENDBRANCH  18  19
ENDBRANCH  16  18
ENDBRANCH   8   9
BRANCH   1  32
HETATM   32  O   UNL     1     -23.813   3.231  27.526  1.00  0.00    -0.304 OA
BRANCH  32  33
HETATM   33  C   UNL     1     -22.430   3.322  27.514  1.00  0.00     0.092 A 
HETATM   34  C   UNL     1     -21.796   4.019  28.521  1.00  0.00     0.041 A 
HETATM   35  C   UNL     1     -20.422   4.159  28.501  1.00  0.00     0.045 A 
HETATM   36  C   UNL     1     -19.742   3.610  27.440  1.00  0.00     0.117 A 
HETATM   37  F   UNL     1     -18.397   3.740  27.442  1.00  0.00    -0.206 F 
HETATM   38  C   UNL     1     -20.347   2.944  26.403  1.00  0.00     0.062 A 
HETATM   39  C   UNL     1     -21.737   2.823  26.408  1.00  0.00     0.069 A 
BRANCH  39  40
HETATM   40  C   UNL     1     -22.505   2.164  25.273  1.00  0.00     0.257 C 
HETATM   41  N   UNL     1     -22.907   2.829  24.175  1.00  0.00    -0.344 N 
HETATM   42  O   UNL     1     -22.742   0.969  25.374  1.00  0.00    -0.267 OA
BRANCH  41  43
HETATM   43  C   UNL     1     -22.860   4.291  24.051  1.00  0.00     0.079 C 
HETATM   44  C   UNL     1     -24.259   4.851  23.922  1.00  0.00     0.032 C 
HETATM   45  C   UNL     1     -21.937   4.710  22.935  1.00  0.00     0.032 C 
ENDBRANCH  41  43
BRANCH  41  46
HETATM   46  C   UNL     1     -23.522   2.126  23.039  1.00  0.00     0.122 C 
HETATM   47  C   UNL     1     -22.525   1.451  22.145  1.00  0.00     0.026 C 
ENDBRANCH  41  46
ENDBRANCH  39  40
ENDBRANCH  32  33
ENDBRANCH   1  32
TORSDOF 11
ENDMDL
MODEL 13
REMARK VINA RESULT:    -8.661      2.702      4.274
REMARK INTER + INTRA:         -15.725
REMARK INTER:                 -13.722
REMARK INTRA:                  -2.003
REMARK UNBOUND:                -1.494
REMARK  11 active torsions:
REMARK  status: ('A' for Active; 'I' for Inactive)
REMARK    1  A    between atoms: C_2  and  N_4 
REMARK    2  A    between atoms: N_4  and  C_5 
REMARK       I    between atoms: N_4  and  C_7 
REMARK    3  A    between atoms: C_7  and  C_9 
REMARK    4  A    between atoms: C_15  and  O_16 
REMARK    5  A    between atoms: O_16  and  C_17 
REMARK    6  A    between atoms: C_24  and  N_25 
REMARK    7  A    between atoms: N_33  and  C_34 
REMARK    8  A    between atoms: C_34  and  C_35 
REMARK    9  A    between atoms: C_40  and  N_41 
REMARK   10  A    between atoms: N_41  and  S_43 
REMARK   11  A    between atoms: S_43  and  C_46 
ROOT
HETATM    1  C   UNL     1     -21.964   2.938  27.185  1.00  0.00     0.135 A 
HETATM    2  C   UNL     1     -22.020   3.770  28.275  1.00  0.00     0.130 A 
HETATM    3  N   UNL     1     -20.916   4.282  28.779  1.00  0.00    -0.359 N 
ATOM      4  HN  UNL     1     -20.938   4.869  29.613  1.00  0.00     0.166 HD
HETATM    5  C   UNL     1     -19.763   4.004  28.158  1.00  0.00     0.182 A 
HETATM    6  N   UNL     1     -19.626   3.161  27.131  1.00  0.00    -0.336 N 
ATOM      7  HN  UNL     1     -18.706   2.922  26.760  1.00  0.00     0.168 HD
HETATM    8  C   UNL     1     -20.732   2.647  26.612  1.00  0.00     0.140 A 
ENDROOT
BRANCH   8   9
HETATM    9  N   UNL     1     -20.632   1.770  25.582  1.00  0.00    -0.363 N 
HETATM   10  C   UNL     1     -20.645   0.317  25.618  1.00  0.00     0.135 A 
HETATM   11  C   UNL     1     -20.826   0.426  24.042  1.00  0.00    -0.005 A 
HETATM   12  C   UNL     1     -20.702   2.005  24.144  1.00  0.00     0.135 A 
HETATM   13  C   UNL     1     -19.693  -0.216  23.247  1.00  0.00     0.043 C 
HETATM   14  C   UNL     1     -22.153  -0.127  23.526  1.00  0.00     0.043 C 
HETATM   15  C   UNL     1     -19.718  -1.722  23.329  1.00  0.00     0.273 C 
HETATM   16  N   UNL     1     -21.034  -2.272  22.874  1.00  0.00     0.088 N 
HETATM   17  C   UNL     1     -22.181  -1.636  23.615  1.00  0.00     0.273 C 
BRANCH  16  18
HETATM   18  C   UNL     1     -21.024  -3.753  23.094  1.00  0.00     0.277 C 
BRANCH  18  19
HETATM   19  C   UNL     1     -20.195  -4.523  22.066  1.00  0.00     0.014 C 
HETATM   20  C   UNL     1     -19.346  -5.635  22.698  1.00  0.00     0.008 C 
HETATM   21  C   UNL     1     -18.548  -6.421  21.671  1.00  0.00     0.026 C 
HETATM   22  C   UNL     1     -19.437  -6.923  20.554  1.00  0.00     0.092 C 
HETATM   23  C   UNL     1     -20.239  -5.807  19.906  1.00  0.00     0.026 C 
HETATM   24  C   UNL     1     -21.075  -5.074  20.946  1.00  0.00     0.008 C 
BRANCH  22  25
HETATM   25  N   UNL     1     -18.632  -7.592  19.517  1.00  0.00    -0.315 N 
ATOM     26  HN  UNL     1     -18.120  -7.014  18.851  1.00  0.00     0.172 HD
BRANCH  25  27
HETATM   27  S   UNL     1     -18.521  -9.214  19.384  1.00  0.00     0.226 S 
HETATM   28  O   UNL     1     -17.550  -9.430  18.354  1.00  0.00    -0.206 OA
HETATM   29  O   UNL     1     -18.268  -9.722  20.703  1.00  0.00    -0.206 OA
BRANCH  27  30
HETATM   30  C   UNL     1     -20.120  -9.769  18.820  1.00  0.00     0.158 C 
HETATM   31  C   UNL     1     -20.712  -8.884  17.743  1.00  0.00     0.023 C 
ENDBRANCH  27  30
ENDBRANCH  25  27
ENDBRANCH  22  25
ENDBRANCH  18  19
ENDBRANCH  16  18
ENDBRANCH   8   9
BRANCH   1  32
HETATM   32  O   UNL     1     -23.119   2.431  26.693  1.00  0.00    -0.304 OA
BRANCH  32  33
HETATM   33  C   UNL     1     -23.869   3.092  25.731  1.00  0.00     0.092 A 
HETATM   34  C   UNL     1     -23.381   4.262  25.191  1.00  0.00     0.041 A 
HETATM   35  C   UNL     1     -24.134   4.958  24.264  1.00  0.00     0.045 A 
HETATM   36  C   UNL     1     -25.371   4.452  23.942  1.00  0.00     0.117 A 
HETATM   37  F   UNL     1     -26.090   5.133  23.023  1.00  0.00    -0.206 F 
HETATM   38  C   UNL     1     -25.901   3.311  24.491  1.00  0.00     0.062 A 
HETATM   39  C   UNL     1     -25.152   2.620  25.446  1.00  0.00     0.069 A 
BRANCH  39  40
HETATM   40  C   UNL     1     -25.678   1.385  26.160  1.00  0.00     0.257 C 
HETATM   41  N   UNL     1     -26.445   1.446  27.264  1.00  0.00    -0.344 N 
HETATM   42  O   UNL     1     -25.393   0.296  25.685  1.00  0.00    -0.267 OA
BRANCH  41  43
HETATM   43  C   UNL     1     -26.667   2.680  28.029  1.00  0.00     0.079 C 
HETATM   44  C   UNL     1     -25.661   2.787  29.153  1.00  0.00     0.032 C 
HETATM   45  C   UNL     1     -28.099   2.780  28.489  1.00  0.00     0.032 C 
ENDBRANCH  41  43
BRANCH  41  46
HETATM   46  C   UNL     1     -27.048   0.237  27.842  1.00  0.00     0.122 C 
HETATM   47  C   UNL     1     -26.164  -0.455  28.837  1.00  0.00     0.026 C 
ENDBRANCH  41  46
ENDBRANCH  39  40
ENDBRANCH  32  33
ENDBRANCH   1  32
TORSDOF 11
ENDMDL
MODEL 14
REMARK VINA RESULT:    -8.643      1.831      2.407
REMARK INTER + INTRA:         -15.695
REMARK INTER:                 -14.345
REMARK INTRA:                  -1.350
REMARK UNBOUND:                -1.494
REMARK  11 active torsions:
REMARK  status: ('A' for Active; 'I' for Inactive)
REMARK    1  A    between atoms: C_2  and  N_4 
REMARK    2  A    between atoms: N_4  and  C_5 
REMARK       I    between atoms: N_4  and  C_7 
REMARK    3  A    between atoms: C_7  and  C_9 
REMARK    4  A    between atoms: C_15  and  O_16 
REMARK    5  A    between atoms: O_16  and  C_17 
REMARK    6  A    between atoms: C_24  and  N_25 
REMARK    7  A    between atoms: N_33  and  C_34 
REMARK    8  A    between atoms: C_34  and  C_35 
REMARK    9  A    between atoms: C_40  and  N_41 
REMARK   10  A    between atoms: N_41  and  S_43 
REMARK   11  A    between atoms: S_43  and  C_46 
ROOT
HETATM    1  C   UNL     1     -22.234   1.220  27.326  1.00  0.00     0.135 A 
HETATM    2  C   UNL     1     -21.914   2.260  28.161  1.00  0.00     0.130 A 
HETATM    3  N   UNL     1     -20.716   2.808  28.113  1.00  0.00    -0.359 N 
ATOM      4  HN  UNL     1     -20.451   3.554  28.756  1.00  0.00     0.166 HD
HETATM    5  C   UNL     1     -19.861   2.349  27.191  1.00  0.00     0.182 A 
HETATM    6  N   UNL     1     -20.083   1.307  26.385  1.00  0.00    -0.336 N 
ATOM      7  HN  UNL     1     -19.354   0.950  25.767  1.00  0.00     0.168 HD
HETATM    8  C   UNL     1     -21.287   0.755  26.421  1.00  0.00     0.140 A 
ENDROOT
BRANCH   8   9
HETATM    9  N   UNL     1     -21.544  -0.320  25.634  1.00  0.00    -0.363 N 
HETATM   10  C   UNL     1     -20.649  -1.023  24.730  1.00  0.00     0.135 A 
HETATM   11  C   UNL     1     -21.789  -2.130  24.697  1.00  0.00    -0.005 A 
HETATM   12  C   UNL     1     -22.699  -1.211  25.617  1.00  0.00     0.135 A 
HETATM   13  C   UNL     1     -22.379  -2.364  23.309  1.00  0.00     0.043 C 
HETATM   14  C   UNL     1     -21.368  -3.479  25.277  1.00  0.00     0.043 C 
HETATM   15  C   UNL     1     -21.414  -3.069  22.388  1.00  0.00     0.273 C 
HETATM   16  N   UNL     1     -20.954  -4.369  22.972  1.00  0.00     0.088 N 
HETATM   17  C   UNL     1     -20.395  -4.182  24.358  1.00  0.00     0.273 C 
BRANCH  16  18
HETATM   18  C   UNL     1     -19.916  -4.949  22.061  1.00  0.00     0.277 C 
BRANCH  18  19
HETATM   19  C   UNL     1     -19.342  -6.280  22.550  1.00  0.00     0.014 C 
HETATM   20  C   UNL     1     -20.429  -7.316  22.867  1.00  0.00     0.008 C 
HETATM   21  C   UNL     1     -19.855  -8.649  23.321  1.00  0.00     0.026 C 
HETATM   22  C   UNL     1     -18.821  -9.162  22.343  1.00  0.00     0.092 C 
HETATM   23  C   UNL     1     -17.727  -8.144  22.071  1.00  0.00     0.026 C 
HETATM   24  C   UNL     1     -18.322  -6.839  21.561  1.00  0.00     0.008 C 
BRANCH  22  25
HETATM   25  N   UNL     1     -18.202 -10.399  22.850  1.00  0.00    -0.315 N 
ATOM     26  HN  UNL     1     -17.729 -10.371  23.753  1.00  0.00     0.172 HD
BRANCH  25  27
HETATM   27  S   UNL     1     -18.239 -11.811  22.036  1.00  0.00     0.226 S 
HETATM   28  O   UNL     1     -18.451 -11.439  20.669  1.00  0.00    -0.206 OA
HETATM   29  O   UNL     1     -17.046 -12.527  22.391  1.00  0.00    -0.206 OA
BRANCH  27  30
HETATM   30  C   UNL     1     -19.671 -12.688  22.641  1.00  0.00     0.158 C 
HETATM   31  C   UNL     1     -19.679 -14.154  22.257  1.00  0.00     0.023 C 
ENDBRANCH  27  30
ENDBRANCH  25  27
ENDBRANCH  22  25
ENDBRANCH  18  19
ENDBRANCH  16  18
ENDBRANCH   8   9
BRANCH   1  32
HETATM   32  O   UNL     1     -23.474   0.682  27.402  1.00  0.00    -0.304 OA
BRANCH  32  33
HETATM   33  C   UNL     1     -24.595   1.441  27.705  1.00  0.00     0.092 A 
HETATM   34  C   UNL     1     -24.949   1.612  29.026  1.00  0.00     0.041 A 
HETATM   35  C   UNL     1     -26.087   2.328  29.346  1.00  0.00     0.045 A 
HETATM   36  C   UNL     1     -26.843   2.818  28.307  1.00  0.00     0.117 A 
HETATM   37  F   UNL     1     -27.944   3.529  28.634  1.00  0.00    -0.206 F 
HETATM   38  C   UNL     1     -26.538   2.631  26.981  1.00  0.00     0.062 A 
HETATM   39  C   UNL     1     -25.402   1.889  26.656  1.00  0.00     0.069 A 
BRANCH  39  40
HETATM   40  C   UNL     1     -25.017   1.570  25.220  1.00  0.00     0.257 C 
HETATM   41  N   UNL     1     -24.166   2.326  24.503  1.00  0.00    -0.344 N 
HETATM   42  O   UNL     1     -25.500   0.566  24.717  1.00  0.00    -0.267 OA
BRANCH  41  43
HETATM   43  C   UNL     1     -23.699   3.650  24.934  1.00  0.00     0.079 C 
HETATM   44  C   UNL     1     -24.602   4.729  24.380  1.00  0.00     0.032 C 
HETATM   45  C   UNL     1     -22.244   3.848  24.592  1.00  0.00     0.032 C 
ENDBRANCH  41  43
BRANCH  41  46
HETATM   46  C   UNL     1     -23.710   1.907  23.170  1.00  0.00     0.122 C 
HETATM   47  C   UNL     1     -24.640   2.316  22.066  1.00  0.00     0.026 C 
ENDBRANCH  41  46
ENDBRANCH  39  40
ENDBRANCH  32  33
ENDBRANCH   1  32
TORSDOF 11
ENDMDL
MODEL 15
REMARK VINA RESULT:    -8.635      5.631     11.242
REMARK INTER + INTRA:         -15.681
REMARK INTER:                 -13.531
REMARK INTRA:                  -2.150
REMARK UNBOUND:                -1.494
REMARK  11 active torsions:
REMARK  status: ('A' for Active; 'I' for Inactive)
REMARK    1  A    between atoms: C_2  and  N_4 
REMARK    2  A    between atoms: N_4  and  C_5 
REMARK       I    between atoms: N_4  and  C_7 
REMARK    3  A    between atoms: C_7  and  C_9 
REMARK    4  A    between atoms: C_15  and  O_16 
REMARK    5  A    between atoms: O_16  and  C_17 
REMARK    6  A    between atoms: C_24  and  N_25 
REMARK    7  A    between atoms: N_33  and  C_34 
REMARK    8  A    between atoms: C_34  and  C_35 
REMARK    9  A    between atoms: C_40  and  N_41 
REMARK   10  A    between atoms: N_41  and  S_43 
REMARK   11  A    between atoms: S_43  and  C_46 
ROOT
HETATM    1  C   UNL     1     -23.121   0.293  20.520  1.00  0.00     0.135 A 
HETATM    2  C   UNL     1     -22.320  -0.237  19.541  1.00  0.00     0.130 A 
HETATM    3  N   UNL     1     -22.646  -0.108  18.271  1.00  0.00    -0.359 N 
ATOM      4  HN  UNL     1     -22.081  -0.532  17.534  1.00  0.00     0.166 HD
HETATM    5  C   UNL     1     -23.745   0.599  17.981  1.00  0.00     0.182 A 
HETATM    6  N   UNL     1     -24.600   1.095  18.880  1.00  0.00    -0.336 N 
ATOM      7  HN  UNL     1     -25.469   1.546  18.592  1.00  0.00     0.168 HD
HETATM    8  C   UNL     1     -24.277   0.976  20.160  1.00  0.00     0.140 A 
ENDROOT
BRANCH   8   9
HETATM    9  N   UNL     1     -25.131   1.447  21.103  1.00  0.00    -0.363 N 
HETATM   10  C   UNL     1     -26.276   0.787  21.706  1.00  0.00     0.135 A 
HETATM   11  C   UNL     1     -26.228   1.983  22.753  1.00  0.00    -0.005 A 
HETATM   12  C   UNL     1     -25.036   2.639  21.937  1.00  0.00     0.135 A 
HETATM   13  C   UNL     1     -27.491   2.838  22.767  1.00  0.00     0.043 C 
HETATM   14  C   UNL     1     -25.922   1.547  24.185  1.00  0.00     0.043 C 
HETATM   15  C   UNL     1     -28.667   2.114  23.373  1.00  0.00     0.273 C 
HETATM   16  N   UNL     1     -28.359   1.637  24.759  1.00  0.00     0.088 N 
HETATM   17  C   UNL     1     -27.098   0.814  24.790  1.00  0.00     0.273 C 
BRANCH  16  18
HETATM   18  C   UNL     1     -29.523   0.831  25.246  1.00  0.00     0.277 C 
BRANCH  18  19
HETATM   19  C   UNL     1     -29.826   1.022  26.733  1.00  0.00     0.014 C 
HETATM   20  C   UNL     1     -29.720  -0.284  27.534  1.00  0.00     0.008 C 
HETATM   21  C   UNL     1     -29.988  -0.086  29.017  1.00  0.00     0.026 C 
HETATM   22  C   UNL     1     -29.132   1.024  29.586  1.00  0.00     0.092 C 
HETATM   23  C   UNL     1     -29.280   2.323  28.811  1.00  0.00     0.026 C 
HETATM   24  C   UNL     1     -28.948   2.113  27.341  1.00  0.00     0.008 C 
BRANCH  22  25
HETATM   25  N   UNL     1     -29.480   1.271  30.996  1.00  0.00    -0.315 N 
ATOM     26  HN  UNL     1     -30.382   1.698  31.207  1.00  0.00     0.172 HD
BRANCH  25  27
HETATM   27  S   UNL     1     -28.490   0.895  32.236  1.00  0.00     0.226 S 
HETATM   28  O   UNL     1     -28.898   1.756  33.304  1.00  0.00    -0.206 OA
HETATM   29  O   UNL     1     -28.569  -0.528  32.413  1.00  0.00    -0.206 OA
BRANCH  27  30
HETATM   30  C   UNL     1     -26.847   1.345  31.704  1.00  0.00     0.158 C 
HETATM   31  C   UNL     1     -26.052   0.173  31.165  1.00  0.00     0.023 C 
ENDBRANCH  27  30
ENDBRANCH  25  27
ENDBRANCH  22  25
ENDBRANCH  18  19
ENDBRANCH  16  18
ENDBRANCH   8   9
BRANCH   1  32
HETATM   32  O   UNL     1     -22.755   0.142  21.814  1.00  0.00    -0.304 OA
BRANCH  32  33
HETATM   33  C   UNL     1     -21.624   0.747  22.341  1.00  0.00     0.092 A 
HETATM   34  C   UNL     1     -21.541   2.124  22.342  1.00  0.00     0.041 A 
HETATM   35  C   UNL     1     -20.403   2.744  22.821  1.00  0.00     0.045 A 
HETATM   36  C   UNL     1     -19.376   1.940  23.255  1.00  0.00     0.117 A 
HETATM   37  F   UNL     1     -18.276   2.559  23.736  1.00  0.00    -0.206 F 
HETATM   38  C   UNL     1     -19.412   0.568  23.231  1.00  0.00     0.062 A 
HETATM   39  C   UNL     1     -20.551  -0.061  22.724  1.00  0.00     0.069 A 
BRANCH  39  40
HETATM   40  C   UNL     1     -20.661  -1.571  22.593  1.00  0.00     0.257 C 
HETATM   41  N   UNL     1     -21.261  -2.346  23.515  1.00  0.00    -0.344 N 
HETATM   42  O   UNL     1     -20.192  -2.085  21.589  1.00  0.00    -0.267 OA
BRANCH  41  43
HETATM   43  C   UNL     1     -21.665  -1.863  24.841  1.00  0.00     0.079 C 
HETATM   44  C   UNL     1     -20.523  -2.007  25.822  1.00  0.00     0.032 C 
HETATM   45  C   UNL     1     -22.938  -2.531  25.295  1.00  0.00     0.032 C 
ENDBRANCH  41  43
BRANCH  41  46
HETATM   46  C   UNL     1     -21.471  -3.783  23.285  1.00  0.00     0.122 C 
HETATM   47  C   UNL     1     -20.273  -4.622  23.616  1.00  0.00     0.026 C 
ENDBRANCH  41  46
ENDBRANCH  39  40
ENDBRANCH  32  33
ENDBRANCH   1  32
TORSDOF 11
ENDMDL
MODEL 16
REMARK VINA RESULT:    -8.606      2.431      3.660
REMARK INTER + INTRA:         -15.635
REMARK INTER:                 -13.746
REMARK INTRA:                  -1.889
REMARK UNBOUND:                -1.494
REMARK  11 active torsions:
REMARK  status: ('A' for Active; 'I' for Inactive)
REMARK    1  A    between atoms: C_2  and  N_4 
REMARK    2  A    between atoms: N_4  and  C_5 
REMARK       I    between atoms: N_4  and  C_7 
REMARK    3  A    between atoms: C_7  and  C_9 
REMARK    4  A    between atoms: C_15  and  O_16 
REMARK    5  A    between atoms: O_16  and  C_17 
REMARK    6  A    between atoms: C_24  and  N_25 
REMARK    7  A    between atoms: N_33  and  C_34 
REMARK    8  A    between atoms: C_34  and  C_35 
REMARK    9  A    between atoms: C_40  and  N_41 
REMARK   10  A    between atoms: N_41  and  S_43 
REMARK   11  A    between atoms: S_43  and  C_46 
ROOT
HETATM    1  C   UNL     1     -23.038   1.872  25.398  1.00  0.00     0.135 A 
HETATM    2  C   UNL     1     -22.975   3.184  25.794  1.00  0.00     0.130 A 
HETATM    3  N   UNL     1     -21.816   3.733  26.097  1.00  0.00    -0.359 N 
ATOM      4  HN  UNL     1     -21.759   4.695  26.432  1.00  0.00     0.166 HD
HETATM    5  C   UNL     1     -20.717   2.984  25.950  1.00  0.00     0.182 A 
HETATM    6  N   UNL     1     -20.707   1.688  25.624  1.00  0.00    -0.336 N 
ATOM      7  HN  UNL     1     -19.840   1.150  25.617  1.00  0.00     0.168 HD
HETATM    8  C   UNL     1     -21.867   1.129  25.310  1.00  0.00     0.140 A 
ENDROOT
BRANCH   8   9
HETATM    9  N   UNL     1     -21.900  -0.190  24.995  1.00  0.00    -0.363 N 
HETATM   10  C   UNL     1     -21.249  -0.881  23.895  1.00  0.00     0.135 A 
HETATM   11  C   UNL     1     -21.647  -2.204  24.684  1.00  0.00    -0.005 A 
HETATM   12  C   UNL     1     -22.402  -1.322  25.766  1.00  0.00     0.135 A 
HETATM   13  C   UNL     1     -22.578  -3.127  23.905  1.00  0.00     0.043 C 
HETATM   14  C   UNL     1     -20.454  -3.021  25.175  1.00  0.00     0.043 C 
HETATM   15  C   UNL     1     -21.880  -3.806  22.753  1.00  0.00     0.273 C 
HETATM   16  N   UNL     1     -20.677  -4.568  23.217  1.00  0.00     0.088 N 
HETATM   17  C   UNL     1     -19.749  -3.695  24.020  1.00  0.00     0.273 C 
BRANCH  16  18
HETATM   18  C   UNL     1     -19.975  -5.113  22.012  1.00  0.00     0.277 C 
BRANCH  18  19
HETATM   19  C   UNL     1     -19.206  -6.407  22.279  1.00  0.00     0.014 C 
HETATM   20  C   UNL     1     -20.032  -7.440  23.060  1.00  0.00     0.008 C 
HETATM   21  C   UNL     1     -19.277  -8.738  23.296  1.00  0.00     0.026 C 
HETATM   22  C   UNL     1     -18.718  -9.290  22.003  1.00  0.00     0.092 C 
HETATM   23  C   UNL     1     -17.866  -8.273  21.261  1.00  0.00     0.026 C 
HETATM   24  C   UNL     1     -18.661  -7.006  20.984  1.00  0.00     0.008 C 
BRANCH  22  25
HETATM   25  N   UNL     1     -17.904 -10.490  22.264  1.00  0.00    -0.315 N 
ATOM     26  HN  UNL     1     -17.066 -10.393  22.838  1.00  0.00     0.172 HD
BRANCH  25  27
HETATM   27  S   UNL     1     -18.281 -11.965  21.681  1.00  0.00     0.226 S 
HETATM   28  O   UNL     1     -18.954 -11.707  20.444  1.00  0.00    -0.206 OA
HETATM   29  O   UNL     1     -17.066 -12.731  21.672  1.00  0.00    -0.206 OA
BRANCH  27  30
HETATM   30  C   UNL     1     -19.432 -12.673  22.847  1.00  0.00     0.158 C 
HETATM   31  C   UNL     1     -19.569 -14.176  22.711  1.00  0.00     0.023 C 
ENDBRANCH  27  30
ENDBRANCH  25  27
ENDBRANCH  22  25
ENDBRANCH  18  19
ENDBRANCH  16  18
ENDBRANCH   8   9
BRANCH   1  32
HETATM   32  O   UNL     1     -24.246   1.341  25.094  1.00  0.00    -0.304 OA
BRANCH  32  33
HETATM   33  C   UNL     1     -24.865   1.559  23.872  1.00  0.00     0.092 A 
HETATM   34  C   UNL     1     -24.234   1.146  22.719  1.00  0.00     0.041 A 
HETATM   35  C   UNL     1     -24.815   1.394  21.490  1.00  0.00     0.045 A 
HETATM   36  C   UNL     1     -26.005   2.081  21.476  1.00  0.00     0.117 A 
HETATM   37  F   UNL     1     -26.571   2.302  20.270  1.00  0.00    -0.206 F 
HETATM   38  C   UNL     1     -26.640   2.539  22.605  1.00  0.00     0.062 A 
HETATM   39  C   UNL     1     -26.042   2.311  23.845  1.00  0.00     0.069 A 
BRANCH  39  40
HETATM   40  C   UNL     1     -26.631   2.836  25.145  1.00  0.00     0.257 C 
HETATM   41  N   UNL     1     -27.456   2.111  25.923  1.00  0.00    -0.344 N 
HETATM   42  O   UNL     1     -26.315   3.964  25.492  1.00  0.00    -0.267 OA
BRANCH  41  43
HETATM   43  C   UNL     1     -28.060   0.841  25.501  1.00  0.00     0.079 C 
HETATM   44  C   UNL     1     -29.476   1.069  25.020  1.00  0.00     0.032 C 
HETATM   45  C   UNL     1     -27.951  -0.197  26.588  1.00  0.00     0.032 C 
ENDBRANCH  41  43
BRANCH  41  46
HETATM   46  C   UNL     1     -27.890   2.601  27.239  1.00  0.00     0.122 C 
HETATM   47  C   UNL     1     -26.786   2.646  28.254  1.00  0.00     0.026 C 
ENDBRANCH  41  46
ENDBRANCH  39  40
ENDBRANCH  32  33
ENDBRANCH   1  32
TORSDOF 11
ENDMDL
MODEL 17
REMARK VINA RESULT:    -8.546      5.539      7.513
REMARK INTER + INTRA:         -15.536
REMARK INTER:                 -13.853
REMARK INTRA:                  -1.682
REMARK UNBOUND:                -1.494
REMARK  11 active torsions:
REMARK  status: ('A' for Active; 'I' for Inactive)
REMARK    1  A    between atoms: C_2  and  N_4 
REMARK    2  A    between atoms: N_4  and  C_5 
REMARK       I    between atoms: N_4  and  C_7 
REMARK    3  A    between atoms: C_7  and  C_9 
REMARK    4  A    between atoms: C_15  and  O_16 
REMARK    5  A    between atoms: O_16  and  C_17 
REMARK    6  A    between atoms: C_24  and  N_25 
REMARK    7  A    between atoms: N_33  and  C_34 
REMARK    8  A    between atoms: C_34  and  C_35 
REMARK    9  A    between atoms: C_40  and  N_41 
REMARK   10  A    between atoms: N_41  and  S_43 
REMARK   11  A    between atoms: S_43  and  C_46 
ROOT
HETATM    1  C   UNL     1     -23.944   2.333  27.111  1.00  0.00     0.135 A 
HETATM    2  C   UNL     1     -23.606   2.083  28.417  1.00  0.00     0.130 A 
HETATM    3  N   UNL     1     -24.305   1.224  29.132  1.00  0.00    -0.359 N 
ATOM      4  HN  UNL     1     -24.090   1.059  30.116  1.00  0.00     0.166 HD
HETATM    5  C   UNL     1     -25.305   0.578  28.523  1.00  0.00     0.182 A 
HETATM    6  N   UNL     1     -25.725   0.809  27.275  1.00  0.00    -0.336 N 
ATOM      7  HN  UNL     1     -26.553   0.346  26.900  1.00  0.00     0.168 HD
HETATM    8  C   UNL     1     -25.024   1.666  26.546  1.00  0.00     0.140 A 
ENDROOT
BRANCH   8   9
HETATM    9  N   UNL     1     -25.432   1.944  25.282  1.00  0.00    -0.363 N 
HETATM   10  C   UNL     1     -25.227   1.172  24.067  1.00  0.00     0.135 A 
HETATM   11  C   UNL     1     -26.312   2.151  23.439  1.00  0.00    -0.005 A 
HETATM   12  C   UNL     1     -26.363   2.959  24.803  1.00  0.00     0.135 A 
HETATM   13  C   UNL     1     -25.787   2.978  22.269  1.00  0.00     0.043 C 
HETATM   14  C   UNL     1     -27.601   1.458  23.002  1.00  0.00     0.043 C 
HETATM   15  C   UNL     1     -25.558   2.143  21.033  1.00  0.00     0.273 C 
HETATM   16  N   UNL     1     -26.803   1.417  20.627  1.00  0.00     0.088 N 
HETATM   17  C   UNL     1     -27.370   0.614  21.769  1.00  0.00     0.273 C 
BRANCH  16  18
HETATM   18  C   UNL     1     -26.469   0.525  19.472  1.00  0.00     0.277 C 
BRANCH  18  19
HETATM   19  C   UNL     1     -24.982   0.185  19.366  1.00  0.00     0.014 C 
HETATM   20  C   UNL     1     -24.638  -1.180  19.980  1.00  0.00     0.008 C 
HETATM   21  C   UNL     1     -23.166  -1.531  19.844  1.00  0.00     0.026 C 
HETATM   22  C   UNL     1     -22.700  -1.397  18.411  1.00  0.00     0.092 C 
HETATM   23  C   UNL     1     -23.006  -0.027  17.828  1.00  0.00     0.026 C 
HETATM   24  C   UNL     1     -24.495   0.276  17.922  1.00  0.00     0.008 C 
BRANCH  22  25
HETATM   25  N   UNL     1     -21.250  -1.640  18.316  1.00  0.00    -0.315 N 
ATOM     26  HN  UNL     1     -20.613  -0.889  18.583  1.00  0.00     0.172 HD
BRANCH  25  27
HETATM   27  S   UNL     1     -20.615  -3.052  17.804  1.00  0.00     0.226 S 
HETATM   28  O   UNL     1     -19.510  -2.676  16.975  1.00  0.00    -0.206 OA
HETATM   29  O   UNL     1     -20.376  -3.848  18.974  1.00  0.00    -0.206 OA
BRANCH  27  30
HETATM   30  C   UNL     1     -21.876  -3.819  16.800  1.00  0.00     0.158 C 
HETATM   31  C   UNL     1     -21.693  -3.567  15.317  1.00  0.00     0.023 C 
ENDBRANCH  27  30
ENDBRANCH  25  27
ENDBRANCH  22  25
ENDBRANCH  18  19
ENDBRANCH  16  18
ENDBRANCH   8   9
BRANCH   1  32
HETATM   32  O   UNL     1     -23.204   3.220  26.405  1.00  0.00    -0.304 OA
BRANCH  32  33
HETATM   33  C   UNL     1     -21.832   3.339  26.571  1.00  0.00     0.092 A 
HETATM   34  C   UNL     1     -21.347   4.164  27.564  1.00  0.00     0.041 A 
HETATM   35  C   UNL     1     -19.984   4.330  27.716  1.00  0.00     0.045 A 
HETATM   36  C   UNL     1     -19.161   3.675  26.831  1.00  0.00     0.117 A 
HETATM   37  F   UNL     1     -17.831   3.833  27.000  1.00  0.00    -0.206 F 
HETATM   38  C   UNL     1     -19.614   2.878  25.808  1.00  0.00     0.062 A 
HETATM   39  C   UNL     1     -20.991   2.728  25.638  1.00  0.00     0.069 A 
BRANCH  39  40
HETATM   40  C   UNL     1     -21.591   1.923  24.496  1.00  0.00     0.257 C 
HETATM   41  N   UNL     1     -21.786   2.428  23.265  1.00  0.00    -0.344 N 
HETATM   42  O   UNL     1     -21.888   0.760  24.723  1.00  0.00    -0.267 OA
BRANCH  41  43
HETATM   43  C   UNL     1     -21.662   3.856  22.946  1.00  0.00     0.079 C 
HETATM   44  C   UNL     1     -20.261   4.340  23.245  1.00  0.00     0.032 C 
HETATM   45  C   UNL     1     -22.737   4.659  23.633  1.00  0.00     0.032 C 
ENDBRANCH  41  43
BRANCH  41  46
HETATM   46  C   UNL     1     -22.236   1.578  22.153  1.00  0.00     0.122 C 
HETATM   47  C   UNL     1     -21.144   1.233  21.185  1.00  0.00     0.026 C 
ENDBRANCH  41  46
ENDBRANCH  39  40
ENDBRANCH  32  33
ENDBRANCH   1  32
TORSDOF 11
ENDMDL
MODEL 18
REMARK VINA RESULT:    -8.497      5.093      7.348
REMARK INTER + INTRA:         -15.456
REMARK INTER:                 -13.244
REMARK INTRA:                  -2.211
REMARK UNBOUND:                -1.494
REMARK  11 active torsions:
REMARK  status: ('A' for Active; 'I' for Inactive)
REMARK    1  A    between atoms: C_2  and  N_4 
REMARK    2  A    between atoms: N_4  and  C_5 
REMARK       I    between atoms: N_4  and  C_7 
REMARK    3  A    between atoms: C_7  and  C_9 
REMARK    4  A    between atoms: C_15  and  O_16 
REMARK    5  A    between atoms: O_16  and  C_17 
REMARK    6  A    between atoms: C_24  and  N_25 
REMARK    7  A    between atoms: N_33  and  C_34 
REMARK    8  A    between atoms: C_34  and  C_35 
REMARK    9  A    between atoms: C_40  and  N_41 
REMARK   10  A    between atoms: N_41  and  S_43 
REMARK   11  A    between atoms: S_43  and  C_46 
ROOT
HETATM    1  C   UNL     1     -24.856  -0.021  19.652  1.00  0.00     0.135 A 
HETATM    2  C   UNL     1     -25.940   0.781  19.398  1.00  0.00     0.130 A 
HETATM    3  N   UNL     1     -26.072   1.937  20.016  1.00  0.00    -0.359 N 
ATOM      4  HN  UNL     1     -26.892   2.525  19.868  1.00  0.00     0.166 HD
HETATM    5  C   UNL     1     -25.091   2.313  20.846  1.00  0.00     0.182 A 
HETATM    6  N   UNL     1     -24.038   1.562  21.183  1.00  0.00    -0.336 N 
ATOM      7  HN  UNL     1     -23.372   1.871  21.891  1.00  0.00     0.168 HD
HETATM    8  C   UNL     1     -23.893   0.401  20.560  1.00  0.00     0.140 A 
ENDROOT
BRANCH   8   9
HETATM    9  N   UNL     1     -22.848  -0.399  20.892  1.00  0.00    -0.363 N 
HETATM   10  C   UNL     1     -22.857  -1.650  21.632  1.00  0.00     0.135 A 
HETATM   11  C   UNL     1     -21.360  -1.795  21.116  1.00  0.00    -0.005 A 
HETATM   12  C   UNL     1     -21.465  -0.368  20.431  1.00  0.00     0.135 A 
HETATM   13  C   UNL     1     -20.327  -1.851  22.237  1.00  0.00     0.043 C 
HETATM   14  C   UNL     1     -21.132  -2.987  20.188  1.00  0.00     0.043 C 
HETATM   15  C   UNL     1     -20.382  -3.149  23.003  1.00  0.00     0.273 C 
HETATM   16  N   UNL     1     -20.212  -4.327  22.095  1.00  0.00     0.088 N 
HETATM   17  C   UNL     1     -21.195  -4.289  20.955  1.00  0.00     0.273 C 
BRANCH  16  18
HETATM   18  C   UNL     1     -20.395  -5.573  22.904  1.00  0.00     0.277 C 
BRANCH  18  19
HETATM   19  C   UNL     1     -19.879  -6.837  22.215  1.00  0.00     0.014 C 
HETATM   20  C   UNL     1     -18.347  -6.881  22.122  1.00  0.00     0.008 C 
HETATM   21  C   UNL     1     -17.835  -8.153  21.467  1.00  0.00     0.026 C 
HETATM   22  C   UNL     1     -18.419  -9.383  22.127  1.00  0.00     0.092 C 
HETATM   23  C   UNL     1     -19.937  -9.349  22.174  1.00  0.00     0.026 C 
HETATM   24  C   UNL     1     -20.424  -8.096  22.887  1.00  0.00     0.008 C 
BRANCH  22  25
HETATM   25  N   UNL     1     -17.994 -10.601  21.415  1.00  0.00    -0.315 N 
ATOM     26  HN  UNL     1     -17.616 -10.505  20.472  1.00  0.00     0.172 HD
BRANCH  25  27
HETATM   27  S   UNL     1     -18.098 -12.094  22.062  1.00  0.00     0.226 S 
HETATM   28  O   UNL     1     -16.826 -12.695  21.801  1.00  0.00    -0.206 OA
HETATM   29  O   UNL     1     -18.529 -11.927  23.422  1.00  0.00    -0.206 OA
BRANCH  27  30
HETATM   30  C   UNL     1     -19.360 -12.944  21.130  1.00  0.00     0.158 C 
HETATM   31  C   UNL     1     -19.002 -14.382  20.814  1.00  0.00     0.023 C 
ENDBRANCH  27  30
ENDBRANCH  25  27
ENDBRANCH  22  25
ENDBRANCH  18  19
ENDBRANCH  16  18
ENDBRANCH   8   9
BRANCH   1  32
HETATM   32  O   UNL     1     -24.752  -1.202  18.998  1.00  0.00    -0.304 OA
BRANCH  32  33
HETATM   33  C   UNL     1     -24.342  -1.284  17.676  1.00  0.00     0.092 A 
HETATM   34  C   UNL     1     -23.182  -0.645  17.294  1.00  0.00     0.041 A 
HETATM   35  C   UNL     1     -22.781  -0.678  15.972  1.00  0.00     0.045 A 
HETATM   36  C   UNL     1     -23.592  -1.337  15.079  1.00  0.00     0.117 A 
HETATM   37  F   UNL     1     -23.180  -1.377  13.793  1.00  0.00    -0.206 F 
HETATM   38  C   UNL     1     -24.772  -1.951  15.420  1.00  0.00     0.062 A 
HETATM   39  C   UNL     1     -25.191  -1.897  16.751  1.00  0.00     0.069 A 
BRANCH  39  40
HETATM   40  C   UNL     1     -26.513  -2.486  17.216  1.00  0.00     0.257 C 
HETATM   41  N   UNL     1     -26.617  -3.705  17.776  1.00  0.00    -0.344 N 
HETATM   42  O   UNL     1     -27.514  -1.799  17.082  1.00  0.00    -0.267 OA
BRANCH  41  43
HETATM   43  C   UNL     1     -25.524  -4.686  17.790  1.00  0.00     0.079 C 
HETATM   44  C   UNL     1     -26.024  -6.033  17.319  1.00  0.00     0.032 C 
HETATM   45  C   UNL     1     -24.853  -4.729  19.139  1.00  0.00     0.032 C 
ENDBRANCH  41  43
BRANCH  41  46
HETATM   46  C   UNL     1     -27.888  -4.180  18.340  1.00  0.00     0.122 C 
HETATM   47  C   UNL     1     -28.244  -3.528  19.643  1.00  0.00     0.026 C 
ENDBRANCH  41  46
ENDBRANCH  39  40
ENDBRANCH  32  33
ENDBRANCH   1  32
TORSDOF 11
ENDMDL
MODEL 19
REMARK VINA RESULT:    -8.448      1.934      3.704
REMARK INTER + INTRA:         -15.374
REMARK INTER:                 -13.669
REMARK INTRA:                  -1.705
REMARK UNBOUND:                -1.494
REMARK  11 active torsions:
REMARK  status: ('A' for Active; 'I' for Inactive)
REMARK    1  A    between atoms: C_2  and  N_4 
REMARK    2  A    between atoms: N_4  and  C_5 
REMARK       I    between atoms: N_4  and  C_7 
REMARK    3  A    between atoms: C_7  and  C_9 
REMARK    4  A    between atoms: C_15  and  O_16 
REMARK    5  A    between atoms: O_16  and  C_17 
REMARK    6  A    between atoms: C_24  and  N_25 
REMARK    7  A    between atoms: N_33  and  C_34 
REMARK    8  A    between atoms: C_34  and  C_35 
REMARK    9  A    between atoms: C_40  and  N_41 
REMARK   10  A    between atoms: N_41  and  S_43 
REMARK   11  A    between atoms: S_43  and  C_46 
ROOT
HETATM    1  C   UNL     1     -24.633   0.690  25.288  1.00  0.00     0.135 A 
HETATM    2  C   UNL     1     -25.615   1.645  25.211  1.00  0.00     0.130 A 
HETATM    3  N   UNL     1     -26.825   1.324  24.800  1.00  0.00    -0.359 N 
ATOM      4  HN  UNL     1     -27.554   2.030  24.699  1.00  0.00     0.166 HD
HETATM    5  C   UNL     1     -27.064   0.037  24.518  1.00  0.00     0.182 A 
HETATM    6  N   UNL     1     -26.145  -0.934  24.516  1.00  0.00    -0.336 N 
ATOM      7  HN  UNL     1     -26.373  -1.878  24.204  1.00  0.00     0.168 HD
HETATM    8  C   UNL     1     -24.928  -0.621  24.936  1.00  0.00     0.140 A 
ENDROOT
BRANCH   8   9
HETATM    9  N   UNL     1     -23.962  -1.574  24.927  1.00  0.00    -0.363 N 
HETATM   10  C   UNL     1     -23.575  -2.470  23.850  1.00  0.00     0.135 A 
HETATM   11  C   UNL     1     -22.306  -2.777  24.758  1.00  0.00    -0.005 A 
HETATM   12  C   UNL     1     -22.899  -1.836  25.891  1.00  0.00     0.135 A 
HETATM   13  C   UNL     1     -22.196  -4.237  25.186  1.00  0.00     0.043 C 
HETATM   14  C   UNL     1     -20.977  -2.352  24.138  1.00  0.00     0.043 C 
HETATM   15  C   UNL     1     -21.822  -5.144  24.040  1.00  0.00     0.273 C 
HETATM   16  N   UNL     1     -20.546  -4.704  23.391  1.00  0.00     0.088 N 
HETATM   17  C   UNL     1     -20.606  -3.255  22.984  1.00  0.00     0.273 C 
BRANCH  16  18
HETATM   18  C   UNL     1     -20.303  -5.575  22.197  1.00  0.00     0.277 C 
BRANCH  18  19
HETATM   19  C   UNL     1     -19.421  -6.790  22.489  1.00  0.00     0.014 C 
HETATM   20  C   UNL     1     -20.179  -7.918  23.202  1.00  0.00     0.008 C 
HETATM   21  C   UNL     1     -19.309  -9.137  23.461  1.00  0.00     0.026 C 
HETATM   22  C   UNL     1     -18.622  -9.600  22.195  1.00  0.00     0.092 C 
HETATM   23  C   UNL     1     -17.839  -8.485  21.522  1.00  0.00     0.026 C 
HETATM   24  C   UNL     1     -18.744  -7.300  21.219  1.00  0.00     0.008 C 
BRANCH  22  25
HETATM   25  N   UNL     1     -17.705 -10.716  22.485  1.00  0.00    -0.315 N 
ATOM     26  HN  UNL     1     -16.782 -10.501  22.864  1.00  0.00     0.172 HD
BRANCH  25  27
HETATM   27  S   UNL     1     -18.095 -12.278  22.230  1.00  0.00     0.226 S 
HETATM   28  O   UNL     1     -16.889 -12.881  21.748  1.00  0.00    -0.206 OA
HETATM   29  O   UNL     1     -18.685 -12.763  23.446  1.00  0.00    -0.206 OA
BRANCH  27  30
HETATM   30  C   UNL     1     -19.316 -12.271  20.928  1.00  0.00     0.158 C 
HETATM   31  C   UNL     1     -19.395 -13.585  20.177  1.00  0.00     0.023 C 
ENDBRANCH  27  30
ENDBRANCH  25  27
ENDBRANCH  22  25
ENDBRANCH  18  19
ENDBRANCH  16  18
ENDBRANCH   8   9
BRANCH   1  32
HETATM   32  O   UNL     1     -23.402   1.056  25.716  1.00  0.00    -0.304 OA
BRANCH  32  33
HETATM   33  C   UNL     1     -23.205   1.761  26.894  1.00  0.00     0.092 A 
HETATM   34  C   UNL     1     -23.669   1.227  28.077  1.00  0.00     0.041 A 
HETATM   35  C   UNL     1     -23.522   1.935  29.255  1.00  0.00     0.045 A 
HETATM   36  C   UNL     1     -22.933   3.175  29.182  1.00  0.00     0.117 A 
HETATM   37  F   UNL     1     -22.780   3.849  30.343  1.00  0.00    -0.206 F 
HETATM   38  C   UNL     1     -22.495   3.750  28.014  1.00  0.00     0.062 A 
HETATM   39  C   UNL     1     -22.666   3.047  26.820  1.00  0.00     0.069 A 
BRANCH  39  40
HETATM   40  C   UNL     1     -22.276   3.625  25.469  1.00  0.00     0.257 C 
HETATM   41  N   UNL     1     -21.067   3.436  24.911  1.00  0.00    -0.344 N 
HETATM   42  O   UNL     1     -23.121   4.274  24.870  1.00  0.00    -0.267 OA
BRANCH  41  43
HETATM   43  C   UNL     1     -19.924   2.858  25.629  1.00  0.00     0.079 C 
HETATM   44  C   UNL     1     -18.672   3.660  25.352  1.00  0.00     0.032 C 
HETATM   45  C   UNL     1     -19.779   1.389  25.324  1.00  0.00     0.032 C 
ENDBRANCH  41  43
BRANCH  41  46
HETATM   46  C   UNL     1     -20.778   3.891  23.543  1.00  0.00     0.122 C 
HETATM   47  C   UNL     1     -21.239   2.933  22.485  1.00  0.00     0.026 C 
ENDBRANCH  41  46
ENDBRANCH  39  40
ENDBRANCH  32  33
ENDBRANCH   1  32
TORSDOF 11
ENDMDL
MODEL 20
REMARK VINA RESULT:    -8.427      5.825     11.618
REMARK INTER + INTRA:         -15.340
REMARK INTER:                 -12.876
REMARK INTRA:                  -2.465
REMARK UNBOUND:                -1.494
REMARK  11 active torsions:
REMARK  status: ('A' for Active; 'I' for Inactive)
REMARK    1  A    between atoms: C_2  and  N_4 
REMARK    2  A    between atoms: N_4  and  C_5 
REMARK       I    between atoms: N_4  and  C_7 
REMARK    3  A    between atoms: C_7  and  C_9 
REMARK    4  A    between atoms: C_15  and  O_16 
REMARK    5  A    between atoms: O_16  and  C_17 
REMARK    6  A    between atoms: C_24  and  N_25 
REMARK    7  A    between atoms: N_33  and  C_34 
REMARK    8  A    between atoms: C_34  and  C_35 
REMARK    9  A    between atoms: C_40  and  N_41 
REMARK   10  A    between atoms: N_41  and  S_43 
REMARK   11  A    between atoms: S_43  and  C_46 
ROOT
HETATM    1  C   UNL     1     -22.178   1.700  22.489  1.00  0.00     0.135 A 
HETATM    2  C   UNL     1     -20.867   2.106  22.500  1.00  0.00     0.130 A 
HETATM    3  N   UNL     1     -20.558   3.351  22.802  1.00  0.00    -0.359 N 
ATOM      4  HN  UNL     1     -19.592   3.677  22.774  1.00  0.00     0.166 HD
HETATM    5  C   UNL     1     -21.557   4.172  23.146  1.00  0.00     0.182 A 
HETATM    6  N   UNL     1     -22.857   3.864  23.104  1.00  0.00    -0.336 N 
ATOM      7  HN  UNL     1     -23.574   4.564  23.292  1.00  0.00     0.168 HD
HETATM    8  C   UNL     1     -23.177   2.612  22.809  1.00  0.00     0.140 A 
ENDROOT
BRANCH   8   9
HETATM    9  N   UNL     1     -24.486   2.266  22.735  1.00  0.00    -0.363 N 
HETATM   10  C   UNL     1     -25.337   1.693  23.765  1.00  0.00     0.135 A 
HETATM   11  C   UNL     1     -26.527   2.048  22.772  1.00  0.00    -0.005 A 
HETATM   12  C   UNL     1     -25.473   2.557  21.701  1.00  0.00     0.135 A 
HETATM   13  C   UNL     1     -27.321   0.831  22.304  1.00  0.00     0.043 C 
HETATM   14  C   UNL     1     -27.508   3.084  23.318  1.00  0.00     0.043 C 
HETATM   15  C   UNL     1     -28.170   0.244  23.404  1.00  0.00     0.273 C 
HETATM   16  N   UNL     1     -29.099   1.267  23.981  1.00  0.00     0.088 N 
HETATM   17  C   UNL     1     -28.354   2.498  24.425  1.00  0.00     0.273 C 
BRANCH  16  18
HETATM   18  C   UNL     1     -29.820   0.645  25.137  1.00  0.00     0.277 C 
BRANCH  18  19
HETATM   19  C   UNL     1     -29.253   1.040  26.502  1.00  0.00     0.014 C 
HETATM   20  C   UNL     1     -30.289   1.733  27.398  1.00  0.00     0.008 C 
HETATM   21  C   UNL     1     -29.733   2.094  28.766  1.00  0.00     0.026 C 
HETATM   22  C   UNL     1     -29.089   0.897  29.430  1.00  0.00     0.092 C 
HETATM   23  C   UNL     1     -28.034   0.246  28.551  1.00  0.00     0.026 C 
HETATM   24  C   UNL     1     -28.629  -0.161  27.210  1.00  0.00     0.008 C 
BRANCH  22  25
HETATM   25  N   UNL     1     -28.466   1.289  30.706  1.00  0.00    -0.315 N 
ATOM     26  HN  UNL     1     -27.716   1.981  30.689  1.00  0.00     0.172 HD
BRANCH  25  27
HETATM   27  S   UNL     1     -28.919   0.671  32.145  1.00  0.00     0.226 S 
HETATM   28  O   UNL     1     -28.064  -0.462  32.341  1.00  0.00    -0.206 OA
HETATM   29  O   UNL     1     -28.881   1.749  33.092  1.00  0.00    -0.206 OA
BRANCH  27  30
HETATM   30  C   UNL     1     -30.601   0.115  31.931  1.00  0.00     0.158 C 
HETATM   31  C   UNL     1     -31.607   1.248  31.931  1.00  0.00     0.023 C 
ENDBRANCH  27  30
ENDBRANCH  25  27
ENDBRANCH  22  25
ENDBRANCH  18  19
ENDBRANCH  16  18
ENDBRANCH   8   9
BRANCH   1  32
HETATM   32  O   UNL     1     -22.458   0.414  22.176  1.00  0.00    -0.304 OA
BRANCH  32  33
HETATM   33  C   UNL     1     -22.293  -0.091  20.895  1.00  0.00     0.092 A 
HETATM   34  C   UNL     1     -23.139   0.336  19.893  1.00  0.00     0.041 A 
HETATM   35  C   UNL     1     -23.019  -0.188  18.621  1.00  0.00     0.045 A 
HETATM   36  C   UNL     1     -22.060  -1.153  18.419  1.00  0.00     0.117 A 
HETATM   37  F   UNL     1     -21.942  -1.646  17.167  1.00  0.00    -0.206 F 
HETATM   38  C   UNL     1     -21.229  -1.627  19.404  1.00  0.00     0.062 A 
HETATM   39  C   UNL     1     -21.366  -1.116  20.695  1.00  0.00     0.069 A 
BRANCH  39  40
HETATM   40  C   UNL     1     -20.540  -1.624  21.867  1.00  0.00     0.257 C 
HETATM   41  N   UNL     1     -20.934  -2.638  22.658  1.00  0.00    -0.344 N 
HETATM   42  O   UNL     1     -19.463  -1.084  22.073  1.00  0.00    -0.267 OA
BRANCH  41  43
HETATM   43  C   UNL     1     -22.287  -3.209  22.630  1.00  0.00     0.079 C 
HETATM   44  C   UNL     1     -22.792  -3.427  24.039  1.00  0.00     0.032 C 
HETATM   45  C   UNL     1     -22.333  -4.448  21.774  1.00  0.00     0.032 C 
ENDBRANCH  41  43
BRANCH  41  46
HETATM   46  C   UNL     1     -20.046  -3.190  23.691  1.00  0.00     0.122 C 
HETATM   47  C   UNL     1     -19.097  -4.228  23.169  1.00  0.00     0.026 C 
ENDBRANCH  41  46
ENDBRANCH  39  40
ENDBRANCH  32  33
ENDBRANCH   1  32
TORSDOF 11
ENDMDL
