MODEL 1
REMARK VINA RESULT:    -9.738      0.000      0.000
REMARK INTER + INTRA:         -13.155
REMARK INTER:                 -12.016
REMARK INTRA:                  -1.140
REMARK UNBOUND:                -1.140
REMARK  4 active torsions:
REMARK  status: ('A' for Active; 'I' for Inactive)
REMARK    1  A    between atoms: C_5  and  CA_19 
REMARK    2  A    between atoms: C_17  and  C_18 
REMARK       I    between atoms: C_18  and  N_23 
REMARK    3  A    between atoms: CA_19  and  C_20 
REMARK    4  A    between atoms: CA_19  and  N_23 
ROOT
HETATM    1  C   UNL     1      42.725 -26.672  10.545  1.00  0.00     0.194 A 
HETATM    2  C   UNL     1      39.815 -27.791  13.412  1.00  0.00     0.018 A 
HETATM    3  C   UNL     1      41.098 -27.565  13.893  1.00  0.00     0.002 A 
HETATM    4  C   UNL     1      42.124 -27.204  13.035  1.00  0.00     0.016 A 
HETATM    5  C   UNL     1      40.545 -27.042   9.742  1.00  0.00    -0.010 A 
HETATM    6  C   UNL     1      39.526 -27.127   8.791  1.00  0.00     0.013 A 
HETATM    7  C   UNL     1      39.831 -26.859   7.464  1.00  0.00     0.001 A 
HETATM    8  C   UNL     1      41.843 -27.053  11.690  1.00  0.00     0.027 A 
HETATM    9  C   UNL     1      41.115 -26.497   7.088  1.00  0.00     0.001 A 
HETATM   10  C   UNL     1      42.133 -26.402   8.029  1.00  0.00     0.016 A 
HETATM   11  C   UNL     1      41.833 -26.678   9.347  1.00  0.00     0.026 A 
HETATM   12  C   UNL     1      40.540 -27.273  11.193  1.00  0.00     0.005 A 
HETATM   13  C   UNL     1      39.517 -27.640  12.056  1.00  0.00     0.044 A 
HETATM   14  O   UNL     1      43.913 -26.419  10.585  1.00  0.00    -0.287 OA
ENDROOT
BRANCH  13  15
HETATM   15  C   UNL     1      38.135 -27.880  11.534  1.00  0.00     0.253 C 
HETATM   16  O   UNL     1      37.826 -28.971  11.046  1.00  0.00    -0.268 OA
HETATM   17  N   UNL     1      37.285 -26.826  11.614  1.00  0.00    -0.338 N 
ATOM     18  HN  UNL     1      37.658 -25.950  11.983  1.00  0.00     0.164 HD
BRANCH  17  19
HETATM   19  CA  UNL     1      35.881 -26.844  11.214  1.00  0.00     0.219 C 
BRANCH  19  20
HETATM   20  C   UNL     1      35.621 -26.277   9.830  1.00  0.00    -0.025 A 
HETATM   21  C   UNL     1      34.357 -26.366   9.277  1.00  0.00     0.010 A 
HETATM   22  C   UNL     1      34.100 -25.868   8.011  1.00  0.00     0.001 A 
HETATM   23  C   UNL     1      35.117 -25.288   7.285  1.00  0.00     0.000 A 
HETATM   24  C   UNL     1      36.377 -25.197   7.825  1.00  0.00     0.001 A 
HETATM   25  C   UNL     1      36.632 -25.682   9.095  1.00  0.00     0.010 A 
ENDBRANCH  19  20
BRANCH  19  26
HETATM   26  C   UNL     1      35.076 -26.025  12.253  1.00  0.00     0.201 C 
HETATM   27  OXT UNL     1      34.210 -26.623  12.908  1.00  0.00    -0.646 OA
HETATM   28  O   UNL     1      35.338 -24.795  12.348  1.00  0.00    -0.646 OA
ENDBRANCH  19  26
ENDBRANCH  17  19
ENDBRANCH  13  15
TORSDOF 4
ENDMDL
MODEL 2
REMARK VINA RESULT:    -8.567      2.198      6.280
REMARK INTER + INTRA:         -11.710
REMARK INTER:                 -10.982
REMARK INTRA:                  -0.727
REMARK UNBOUND:                -1.140
REMARK  4 active torsions:
REMARK  status: ('A' for Active; 'I' for Inactive)
REMARK    1  A    between atoms: C_5  and  CA_19 
REMARK    2  A    between atoms: C_17  and  C_18 
REMARK       I    between atoms: C_18  and  N_23 
REMARK    3  A    between atoms: CA_19  and  C_20 
REMARK    4  A    between atoms: CA_19  and  N_23 
ROOT
HETATM    1  C   UNL     1      35.537 -26.132  12.531  1.00  0.00     0.194 A 
HETATM    2  C   UNL     1      39.626 -27.095  13.075  1.00  0.00     0.018 A 
HETATM    3  C   UNL     1      38.934 -26.688  14.208  1.00  0.00     0.002 A 
HETATM    4  C   UNL     1      37.594 -26.343  14.134  1.00  0.00     0.016 A 
HETATM    5  C   UNL     1      36.716 -26.837  10.620  1.00  0.00    -0.010 A 
HETATM    6  C   UNL     1      36.901 -27.159   9.274  1.00  0.00     0.013 A 
HETATM    7  C   UNL     1      35.823 -27.042   8.408  1.00  0.00     0.001 A 
HETATM    8  C   UNL     1      36.953 -26.427  12.913  1.00  0.00     0.027 A 
HETATM    9  C   UNL     1      34.581 -26.631   8.868  1.00  0.00     0.001 A 
HETATM   10  C   UNL     1      34.388 -26.315  10.207  1.00  0.00     0.016 A 
HETATM   11  C   UNL     1      35.461 -26.422  11.067  1.00  0.00     0.026 A 
HETATM   12  C   UNL     1      37.646 -26.847  11.757  1.00  0.00     0.005 A 
HETATM   13  C   UNL     1      38.989 -27.187  11.835  1.00  0.00     0.044 A 
HETATM   14  O   UNL     1      34.647 -25.737  13.257  1.00  0.00    -0.287 OA
ENDROOT
BRANCH  13  15
HETATM   15  C   UNL     1      39.732 -27.627  10.613  1.00  0.00     0.253 C 
HETATM   16  O   UNL     1      39.743 -28.814  10.275  1.00  0.00    -0.268 OA
HETATM   17  N   UNL     1      40.393 -26.650   9.943  1.00  0.00    -0.338 N 
ATOM     18  HN  UNL     1      40.366 -25.710  10.338  1.00  0.00     0.164 HD
BRANCH  17  19
HETATM   19  CA  UNL     1      41.139 -26.837   8.702  1.00  0.00     0.219 C 
BRANCH  19  20
HETATM   20  C   UNL     1      42.433 -26.047   8.629  1.00  0.00    -0.025 A 
HETATM   21  C   UNL     1      43.588 -26.565   9.186  1.00  0.00     0.010 A 
HETATM   22  C   UNL     1      44.776 -25.854   9.143  1.00  0.00     0.001 A 
HETATM   23  C   UNL     1      44.808 -24.611   8.552  1.00  0.00     0.000 A 
HETATM   24  C   UNL     1      43.666 -24.087   7.998  1.00  0.00     0.001 A 
HETATM   25  C   UNL     1      42.481 -24.801   8.028  1.00  0.00     0.010 A 
ENDBRANCH  19  20
BRANCH  19  26
HETATM   26  C   UNL     1      40.225 -26.417   7.524  1.00  0.00     0.201 C 
HETATM   27  OXT UNL     1      39.338 -25.583   7.757  1.00  0.00    -0.646 OA
HETATM   28  O   UNL     1      40.427 -26.969   6.409  1.00  0.00    -0.646 OA
ENDBRANCH  19  26
ENDBRANCH  17  19
ENDBRANCH  13  15
TORSDOF 4
ENDMDL
MODEL 3
REMARK VINA RESULT:    -8.503      1.131      1.624
REMARK INTER + INTRA:         -11.631
REMARK INTER:                 -10.353
REMARK INTRA:                  -1.278
REMARK UNBOUND:                -1.140
REMARK  4 active torsions:
REMARK  status: ('A' for Active; 'I' for Inactive)
REMARK    1  A    between atoms: C_5  and  CA_19 
REMARK    2  A    between atoms: C_17  and  C_18 
REMARK       I    between atoms: C_18  and  N_23 
REMARK    3  A    between atoms: CA_19  and  C_20 
REMARK    4  A    between atoms: CA_19  and  N_23 
ROOT
HETATM    1  C   UNL     1      43.580 -26.779  11.643  1.00  0.00     0.194 A 
HETATM    2  C   UNL     1      40.497 -28.063  14.248  1.00  0.00     0.018 A 
HETATM    3  C   UNL     1      41.748 -27.875  14.821  1.00  0.00     0.002 A 
HETATM    4  C   UNL     1      42.825 -27.465  14.053  1.00  0.00     0.016 A 
HETATM    5  C   UNL     1      41.453 -27.086  10.685  1.00  0.00    -0.010 A 
HETATM    6  C   UNL     1      40.495 -27.105   9.670  1.00  0.00     0.013 A 
HETATM    7  C   UNL     1      40.881 -26.755   8.384  1.00  0.00     0.001 A 
HETATM    8  C   UNL     1      42.628 -27.228  12.705  1.00  0.00     0.027 A 
HETATM    9  C   UNL     1      42.187 -26.376   8.111  1.00  0.00     0.001 A 
HETATM   10  C   UNL     1      43.144 -26.347   9.118  1.00  0.00     0.016 A 
HETATM   11  C   UNL     1      42.763 -26.704  10.395  1.00  0.00     0.026 A 
HETATM   12  C   UNL     1      41.358 -27.409  12.115  1.00  0.00     0.005 A 
HETATM   13  C   UNL     1      40.284 -27.824  12.889  1.00  0.00     0.044 A 
HETATM   14  O   UNL     1      44.763 -26.535  11.772  1.00  0.00    -0.287 OA
ENDROOT
BRANCH  13  15
HETATM   15  C   UNL     1      38.936 -28.023  12.269  1.00  0.00     0.253 C 
HETATM   16  O   UNL     1      38.693 -29.031  11.598  1.00  0.00    -0.268 OA
HETATM   17  N   UNL     1      38.041 -27.026  12.475  1.00  0.00    -0.338 N 
ATOM     18  HN  UNL     1      38.361 -26.209  12.997  1.00  0.00     0.164 HD
BRANCH  17  19
HETATM   19  CA  UNL     1      36.657 -27.027  12.010  1.00  0.00     0.219 C 
BRANCH  19  20
HETATM   20  C   UNL     1      36.500 -26.744  10.527  1.00  0.00    -0.025 A 
HETATM   21  C   UNL     1      37.025 -25.583   9.989  1.00  0.00     0.010 A 
HETATM   22  C   UNL     1      36.881 -25.298   8.641  1.00  0.00     0.001 A 
HETATM   23  C   UNL     1      36.196 -26.172   7.827  1.00  0.00     0.000 A 
HETATM   24  C   UNL     1      35.669 -27.327   8.352  1.00  0.00     0.001 A 
HETATM   25  C   UNL     1      35.823 -27.620   9.696  1.00  0.00     0.010 A 
ENDBRANCH  19  20
BRANCH  19  26
HETATM   26  C   UNL     1      35.881 -25.953  12.812  1.00  0.00     0.201 C 
HETATM   27  OXT UNL     1      36.544 -25.101  13.420  1.00  0.00    -0.646 OA
HETATM   28  O   UNL     1      34.622 -26.030  12.815  1.00  0.00    -0.646 OA
ENDBRANCH  19  26
ENDBRANCH  17  19
ENDBRANCH  13  15
TORSDOF 4
ENDMDL
MODEL 4
REMARK VINA RESULT:    -8.184      1.196      3.485
REMARK INTER + INTRA:         -11.237
REMARK INTER:                 -10.348
REMARK INTRA:                  -0.889
REMARK UNBOUND:                -1.140
REMARK  4 active torsions:
REMARK  status: ('A' for Active; 'I' for Inactive)
REMARK    1  A    between atoms: C_5  and  CA_19 
REMARK    2  A    between atoms: C_17  and  C_18 
REMARK       I    between atoms: C_18  and  N_23 
REMARK    3  A    between atoms: CA_19  and  C_20 
REMARK    4  A    between atoms: CA_19  and  N_23 
ROOT
HETATM    1  C   UNL     1      43.786 -26.688  11.484  1.00  0.00     0.194 A 
HETATM    2  C   UNL     1      40.858 -26.660   8.424  1.00  0.00     0.018 A 
HETATM    3  C   UNL     1      42.149 -26.318   8.044  1.00  0.00     0.002 A 
HETATM    4  C   UNL     1      43.177 -26.288   8.972  1.00  0.00     0.016 A 
HETATM    5  C   UNL     1      41.598 -27.281  12.116  1.00  0.00    -0.010 A 
HETATM    6  C   UNL     1      40.575 -27.675  12.981  1.00  0.00     0.013 A 
HETATM    7  C   UNL     1      40.879 -27.880  14.319  1.00  0.00     0.001 A 
HETATM    8  C   UNL     1      42.898 -26.623  10.283  1.00  0.00     0.027 A 
HETATM    9  C   UNL     1      42.173 -27.716  14.789  1.00  0.00     0.001 A 
HETATM   10  C   UNL     1      43.198 -27.332  13.933  1.00  0.00     0.016 A 
HETATM   11  C   UNL     1      42.895 -27.118  12.604  1.00  0.00     0.026 A 
HETATM   12  C   UNL     1      41.591 -26.981  10.678  1.00  0.00     0.005 A 
HETATM   13  C   UNL     1      40.563 -27.004   9.745  1.00  0.00     0.044 A 
HETATM   14  O   UNL     1      44.973 -26.437  11.535  1.00  0.00    -0.287 OA
ENDROOT
BRANCH  13  15
HETATM   15  C   UNL     1      39.174 -27.376  10.158  1.00  0.00     0.253 C 
HETATM   16  O   UNL     1      38.846 -28.560  10.273  1.00  0.00    -0.268 OA
HETATM   17  N   UNL     1      38.323 -26.339  10.362  1.00  0.00    -0.338 N 
ATOM     18  HN  UNL     1      38.679 -25.399  10.185  1.00  0.00     0.164 HD
BRANCH  17  19
HETATM   19  CA  UNL     1      36.941 -26.461  10.815  1.00  0.00     0.219 C 
BRANCH  19  20
HETATM   20  C   UNL     1      35.908 -26.115   9.758  1.00  0.00    -0.025 A 
HETATM   21  C   UNL     1      36.318 -25.767   8.484  1.00  0.00     0.010 A 
HETATM   22  C   UNL     1      35.393 -25.435   7.508  1.00  0.00     0.001 A 
HETATM   23  C   UNL     1      34.049 -25.436   7.811  1.00  0.00     0.000 A 
HETATM   24  C   UNL     1      33.632 -25.777   9.074  1.00  0.00     0.001 A 
HETATM   25  C   UNL     1      34.554 -26.123  10.046  1.00  0.00     0.010 A 
ENDBRANCH  19  20
BRANCH  19  26
HETATM   26  C   UNL     1      36.751 -25.521  12.032  1.00  0.00     0.201 C 
HETATM   27  OXT UNL     1      36.406 -26.036  13.105  1.00  0.00    -0.646 OA
HETATM   28  O   UNL     1      36.935 -24.288  11.845  1.00  0.00    -0.646 OA
ENDBRANCH  19  26
ENDBRANCH  17  19
ENDBRANCH  13  15
TORSDOF 4
ENDMDL
MODEL 5
REMARK VINA RESULT:    -8.042      1.374      1.928
REMARK INTER + INTRA:         -11.062
REMARK INTER:                 -10.062
REMARK INTRA:                  -1.000
REMARK UNBOUND:                -1.140
REMARK  4 active torsions:
REMARK  status: ('A' for Active; 'I' for Inactive)
REMARK    1  A    between atoms: C_5  and  CA_19 
REMARK    2  A    between atoms: C_17  and  C_18 
REMARK       I    between atoms: C_18  and  N_23 
REMARK    3  A    between atoms: CA_19  and  C_20 
REMARK    4  A    between atoms: CA_19  and  N_23 
ROOT
HETATM    1  C   UNL     1      43.453 -26.114   9.253  1.00  0.00     0.194 A 
HETATM    2  C   UNL     1      42.212 -27.032  13.197  1.00  0.00     0.018 A 
HETATM    3  C   UNL     1      43.518 -26.584  13.052  1.00  0.00     0.002 A 
HETATM    4  C   UNL     1      44.024 -26.265  11.802  1.00  0.00     0.016 A 
HETATM    5  C   UNL     1      41.237 -26.860   9.512  1.00  0.00    -0.010 A 
HETATM    6  C   UNL     1      39.951 -27.224   9.107  1.00  0.00     0.013 A 
HETATM    7  C   UNL     1      39.635 -27.160   7.757  1.00  0.00     0.001 A 
HETATM    8  C   UNL     1      43.197 -26.385  10.701  1.00  0.00     0.027 A 
HETATM    9  C   UNL     1      40.569 -26.728   6.828  1.00  0.00     0.001 A 
HETATM   10  C   UNL     1      41.848 -26.357   7.223  1.00  0.00     0.016 A 
HETATM   11  C   UNL     1      42.166 -26.429   8.564  1.00  0.00     0.026 A 
HETATM   12  C   UNL     1      41.865 -26.833  10.839  1.00  0.00     0.005 A 
HETATM   13  C   UNL     1      41.366 -27.155  12.093  1.00  0.00     0.044 A 
HETATM   14  O   UNL     1      44.489 -25.726   8.750  1.00  0.00    -0.287 OA
ENDROOT
BRANCH  13  15
HETATM   15  C   UNL     1      39.956 -27.635  12.247  1.00  0.00     0.253 C 
HETATM   16  O   UNL     1      39.711 -28.839  12.369  1.00  0.00    -0.268 OA
HETATM   17  N   UNL     1      39.000 -26.674  12.214  1.00  0.00    -0.338 N 
ATOM     18  HN  UNL     1      39.306 -25.714  12.051  1.00  0.00     0.164 HD
BRANCH  17  19
HETATM   19  CA  UNL     1      37.570 -26.903  12.392  1.00  0.00     0.219 C 
BRANCH  19  20
HETATM   20  C   UNL     1      36.753 -26.754  11.122  1.00  0.00    -0.025 A 
HETATM   21  C   UNL     1      35.692 -27.609  10.883  1.00  0.00     0.010 A 
HETATM   22  C   UNL     1      34.941 -27.499   9.724  1.00  0.00     0.001 A 
HETATM   23  C   UNL     1      35.261 -26.538   8.791  1.00  0.00     0.000 A 
HETATM   24  C   UNL     1      36.314 -25.686   9.018  1.00  0.00     0.001 A 
HETATM   25  C   UNL     1      37.056 -25.785  10.181  1.00  0.00     0.010 A 
ENDBRANCH  19  20
BRANCH  19  26
HETATM   26  C   UNL     1      37.051 -25.893  13.446  1.00  0.00     0.201 C 
HETATM   27  OXT UNL     1      36.143 -25.123  13.103  1.00  0.00    -0.646 OA
HETATM   28  O   UNL     1      37.603 -25.904  14.579  1.00  0.00    -0.646 OA
ENDBRANCH  19  26
ENDBRANCH  17  19
ENDBRANCH  13  15
TORSDOF 4
ENDMDL
MODEL 6
REMARK VINA RESULT:    -7.999      2.124      6.917
REMARK INTER + INTRA:         -11.010
REMARK INTER:                  -9.872
REMARK INTRA:                  -1.137
REMARK UNBOUND:                -1.140
REMARK  4 active torsions:
REMARK  status: ('A' for Active; 'I' for Inactive)
REMARK    1  A    between atoms: C_5  and  CA_19 
REMARK    2  A    between atoms: C_17  and  C_18 
REMARK       I    between atoms: C_18  and  N_23 
REMARK    3  A    between atoms: CA_19  and  C_20 
REMARK    4  A    between atoms: CA_19  and  N_23 
ROOT
HETATM    1  C   UNL     1      36.129 -26.176  12.513  1.00  0.00     0.194 A 
HETATM    2  C   UNL     1      36.671 -26.385   8.318  1.00  0.00     0.018 A 
HETATM    3  C   UNL     1      35.397 -26.049   8.758  1.00  0.00     0.002 A 
HETATM    4  C   UNL     1      35.114 -25.963  10.111  1.00  0.00     0.016 A 
HETATM    5  C   UNL     1      38.288 -26.731  11.757  1.00  0.00    -0.010 A 
HETATM    6  C   UNL     1      39.637 -27.071  11.869  1.00  0.00     0.013 A 
HETATM    7  C   UNL     1      40.188 -27.199  13.136  1.00  0.00     0.001 A 
HETATM    8  C   UNL     1      36.130 -26.201  11.018  1.00  0.00     0.027 A 
HETATM    9  C   UNL     1      39.423 -26.978  14.271  1.00  0.00     0.001 A 
HETATM   10  C   UNL     1      38.081 -26.631  14.168  1.00  0.00     0.016 A 
HETATM   11  C   UNL     1      37.530 -26.513  12.909  1.00  0.00     0.026 A 
HETATM   12  C   UNL     1      37.430 -26.536  10.581  1.00  0.00     0.005 A 
HETATM   13  C   UNL     1      37.706 -26.626   9.224  1.00  0.00     0.044 A 
HETATM   14  O   UNL     1      35.188 -25.939  13.244  1.00  0.00    -0.287 OA
ENDROOT
BRANCH  13  15
HETATM   15  C   UNL     1      39.080 -26.986   8.753  1.00  0.00     0.253 C 
HETATM   16  O   UNL     1      39.412 -28.168   8.620  1.00  0.00    -0.268 OA
HETATM   17  N   UNL     1      39.914 -25.942   8.517  1.00  0.00    -0.338 N 
ATOM     18  HN  UNL     1      39.559 -25.005   8.712  1.00  0.00     0.164 HD
BRANCH  17  19
HETATM   19  CA  UNL     1      41.277 -26.052   8.007  1.00  0.00     0.219 C 
BRANCH  19  20
HETATM   20  C   UNL     1      42.350 -25.981   9.079  1.00  0.00    -0.025 A 
HETATM   21  C   UNL     1      43.645 -26.364   8.781  1.00  0.00     0.010 A 
HETATM   22  C   UNL     1      44.636 -26.320   9.747  1.00  0.00     0.001 A 
HETATM   23  C   UNL     1      44.329 -25.905  11.024  1.00  0.00     0.000 A 
HETATM   24  C   UNL     1      43.045 -25.524  11.330  1.00  0.00     0.001 A 
HETATM   25  C   UNL     1      42.056 -25.554  10.362  1.00  0.00     0.010 A 
ENDBRANCH  19  20
BRANCH  19  26
HETATM   26  C   UNL     1      41.503 -24.903   6.992  1.00  0.00     0.201 C 
HETATM   27  OXT UNL     1      41.646 -23.759   7.445  1.00  0.00    -0.646 OA
HETATM   28  O   UNL     1      41.503 -25.205   5.768  1.00  0.00    -0.646 OA
ENDBRANCH  19  26
ENDBRANCH  17  19
ENDBRANCH  13  15
TORSDOF 4
ENDMDL
MODEL 7
REMARK VINA RESULT:    -7.709      2.540      3.726
REMARK INTER + INTRA:         -10.652
REMARK INTER:                  -9.751
REMARK INTRA:                  -0.901
REMARK UNBOUND:                -1.140
REMARK  4 active torsions:
REMARK  status: ('A' for Active; 'I' for Inactive)
REMARK    1  A    between atoms: C_5  and  CA_19 
REMARK    2  A    between atoms: C_17  and  C_18 
REMARK       I    between atoms: C_18  and  N_23 
REMARK    3  A    between atoms: CA_19  and  C_20 
REMARK    4  A    between atoms: CA_19  and  N_23 
ROOT
HETATM    1  C   UNL     1      44.137 -25.855   9.229  1.00  0.00     0.194 A 
HETATM    2  C   UNL     1      44.061 -27.025  13.299  1.00  0.00     0.018 A 
HETATM    3  C   UNL     1      45.258 -26.499  12.832  1.00  0.00     0.002 A 
HETATM    4  C   UNL     1      45.389 -26.095  11.513  1.00  0.00     0.016 A 
HETATM    5  C   UNL     1      42.108 -26.734  10.034  1.00  0.00    -0.010 A 
HETATM    6  C   UNL     1      40.776 -27.149   9.972  1.00  0.00     0.013 A 
HETATM    7  C   UNL     1      40.100 -27.039   8.765  1.00  0.00     0.001 A 
HETATM    8  C   UNL     1      44.298 -26.208  10.672  1.00  0.00     0.027 A 
HETATM    9  C   UNL     1      40.726 -26.512   7.644  1.00  0.00     0.001 A 
HETATM   10  C   UNL     1      42.048 -26.091   7.700  1.00  0.00     0.016 A 
HETATM   11  C   UNL     1      42.724 -26.208   8.897  1.00  0.00     0.026 A 
HETATM   12  C   UNL     1      43.074 -26.734  11.140  1.00  0.00     0.005 A 
HETATM   13  C   UNL     1      42.950 -27.142  12.460  1.00  0.00     0.044 A 
HETATM   14  O   UNL     1      44.978 -25.388   8.488  1.00  0.00    -0.287 OA
ENDROOT
BRANCH  13  15
HETATM   15  C   UNL     1      41.658 -27.706  12.961  1.00  0.00     0.253 C 
HETATM   16  O   UNL     1      41.441 -28.921  12.918  1.00  0.00    -0.268 OA
HETATM   17  N   UNL     1      40.762 -26.800  13.426  1.00  0.00    -0.338 N 
ATOM     18  HN  UNL     1      41.017 -25.814  13.366  1.00  0.00     0.164 HD
BRANCH  17  19
HETATM   19  CA  UNL     1      39.462 -27.124  14.007  1.00  0.00     0.219 C 
BRANCH  19  20
HETATM   20  C   UNL     1      38.319 -27.128  13.008  1.00  0.00    -0.025 A 
HETATM   21  C   UNL     1      37.291 -26.212  13.136  1.00  0.00     0.010 A 
HETATM   22  C   UNL     1      36.231 -26.207  12.244  1.00  0.00     0.001 A 
HETATM   23  C   UNL     1      36.190 -27.132  11.225  1.00  0.00     0.000 A 
HETATM   24  C   UNL     1      37.205 -28.048  11.091  1.00  0.00     0.001 A 
HETATM   25  C   UNL     1      38.272 -28.046  11.973  1.00  0.00     0.010 A 
ENDBRANCH  19  20
BRANCH  19  26
HETATM   26  C   UNL     1      39.159 -26.083  15.114  1.00  0.00     0.201 C 
HETATM   27  OXT UNL     1      39.682 -24.965  15.007  1.00  0.00    -0.646 OA
HETATM   28  O   UNL     1      38.419 -26.450  16.066  1.00  0.00    -0.646 OA
ENDBRANCH  19  26
ENDBRANCH  17  19
ENDBRANCH  13  15
TORSDOF 4
ENDMDL
MODEL 8
REMARK VINA RESULT:    -7.483      2.559      6.279
REMARK INTER + INTRA:         -10.373
REMARK INTER:                  -9.565
REMARK INTRA:                  -0.807
REMARK UNBOUND:                -1.140
REMARK  4 active torsions:
REMARK  status: ('A' for Active; 'I' for Inactive)
REMARK    1  A    between atoms: C_5  and  CA_19 
REMARK    2  A    between atoms: C_17  and  C_18 
REMARK       I    between atoms: C_18  and  N_23 
REMARK    3  A    between atoms: CA_19  and  C_20 
REMARK    4  A    between atoms: CA_19  and  N_23 
ROOT
HETATM    1  C   UNL     1      38.473 -26.305  14.951  1.00  0.00     0.194 A 
HETATM    2  C   UNL     1      36.962 -26.926  11.043  1.00  0.00     0.018 A 
HETATM    3  C   UNL     1      36.059 -26.448  11.984  1.00  0.00     0.002 A 
HETATM    4  C   UNL     1      36.451 -26.220  13.293  1.00  0.00     0.016 A 
HETATM    5  C   UNL     1      39.999 -27.101  13.347  1.00  0.00    -0.010 A 
HETATM    6  C   UNL     1      41.230 -27.541  12.855  1.00  0.00     0.013 A 
HETATM    7  C   UNL     1      42.310 -27.603  13.724  1.00  0.00     0.001 A 
HETATM    8  C   UNL     1      37.767 -26.461  13.643  1.00  0.00     0.027 A 
HETATM    9  C   UNL     1      42.179 -27.220  15.051  1.00  0.00     0.001 A 
HETATM   10  C   UNL     1      40.959 -26.773  15.545  1.00  0.00     0.016 A 
HETATM   11  C   UNL     1      39.883 -26.721  14.684  1.00  0.00     0.026 A 
HETATM   12  C   UNL     1      38.694 -26.940  12.692  1.00  0.00     0.005 A 
HETATM   13  C   UNL     1      38.294 -27.171  11.384  1.00  0.00     0.044 A 
HETATM   14  O   UNL     1      37.997 -25.927  16.003  1.00  0.00    -0.287 OA
ENDROOT
BRANCH  13  15
HETATM   15  C   UNL     1      39.270 -27.684  10.372  1.00  0.00     0.253 C 
HETATM   16  O   UNL     1      39.488 -28.894  10.264  1.00  0.00    -0.268 OA
HETATM   17  N   UNL     1      39.896 -26.739   9.627  1.00  0.00    -0.338 N 
ATOM     18  HN  UNL     1      39.685 -25.763   9.834  1.00  0.00     0.164 HD
BRANCH  17  19
HETATM   19  CA  UNL     1      40.846 -27.008   8.551  1.00  0.00     0.219 C 
BRANCH  19  20
HETATM   20  C   UNL     1      42.091 -26.140   8.590  1.00  0.00    -0.025 A 
HETATM   21  C   UNL     1      42.059 -24.869   8.046  1.00  0.00     0.010 A 
HETATM   22  C   UNL     1      43.187 -24.065   8.059  1.00  0.00     0.001 A 
HETATM   23  C   UNL     1      44.359 -24.540   8.604  1.00  0.00     0.000 A 
HETATM   24  C   UNL     1      44.401 -25.802   9.145  1.00  0.00     0.001 A 
HETATM   25  C   UNL     1      43.271 -26.601   9.146  1.00  0.00     0.010 A 
ENDBRANCH  19  20
BRANCH  19  26
HETATM   26  C   UNL     1      40.118 -26.785   7.202  1.00  0.00     0.201 C 
HETATM   27  OXT UNL     1      40.752 -27.020   6.163  1.00  0.00    -0.646 OA
HETATM   28  O   UNL     1      38.934 -26.355   7.247  1.00  0.00    -0.646 OA
ENDBRANCH  19  26
ENDBRANCH  17  19
ENDBRANCH  13  15
TORSDOF 4
ENDMDL
MODEL 9
REMARK VINA RESULT:    -7.440      3.109      6.999
REMARK INTER + INTRA:         -10.320
REMARK INTER:                  -9.046
REMARK INTRA:                  -1.274
REMARK UNBOUND:                -1.140
REMARK  4 active torsions:
REMARK  status: ('A' for Active; 'I' for Inactive)
REMARK    1  A    between atoms: C_5  and  CA_19 
REMARK    2  A    between atoms: C_17  and  C_18 
REMARK       I    between atoms: C_18  and  N_23 
REMARK    3  A    between atoms: CA_19  and  C_20 
REMARK    4  A    between atoms: CA_19  and  N_23 
ROOT
HETATM    1  C   UNL     1      40.312 -26.946   8.730  1.00  0.00     0.194 A 
HETATM    2  C   UNL     1      38.308 -27.776  12.368  1.00  0.00     0.018 A 
HETATM    3  C   UNL     1      37.534 -27.817  11.216  1.00  0.00     0.002 A 
HETATM    4  C   UNL     1      38.093 -27.552   9.976  1.00  0.00     0.016 A 
HETATM    5  C   UNL     1      41.619 -26.894  10.686  1.00  0.00    -0.010 A 
HETATM    6  C   UNL     1      42.775 -26.735  11.452  1.00  0.00     0.013 A 
HETATM    7  C   UNL     1      43.959 -26.403  10.807  1.00  0.00     0.001 A 
HETATM    8  C   UNL     1      39.442 -27.262   9.904  1.00  0.00     0.027 A 
HETATM    9  C   UNL     1      44.000 -26.248   9.430  1.00  0.00     0.001 A 
HETATM   10  C   UNL     1      42.855 -26.412   8.660  1.00  0.00     0.016 A 
HETATM   11  C   UNL     1      41.675 -26.733   9.301  1.00  0.00     0.026 A 
HETATM   12  C   UNL     1      40.239 -27.226  11.069  1.00  0.00     0.005 A 
HETATM   13  C   UNL     1      39.674 -27.487  12.309  1.00  0.00     0.044 A 
HETATM   14  O   UNL     1      39.976 -26.874   7.565  1.00  0.00    -0.287 OA
ENDROOT
BRANCH  13  15
HETATM   15  C   UNL     1      40.511 -27.445  13.548  1.00  0.00     0.253 C 
HETATM   16  O   UNL     1      40.745 -26.373  14.114  1.00  0.00    -0.268 OA
HETATM   17  N   UNL     1      40.999 -28.638  13.969  1.00  0.00    -0.338 N 
ATOM     18  HN  UNL     1      40.793 -29.458  13.397  1.00  0.00     0.164 HD
BRANCH  17  19
HETATM   19  CA  UNL     1      41.795 -28.844  15.176  1.00  0.00     0.219 C 
BRANCH  19  20
HETATM   20  C   UNL     1      43.275 -28.555  15.001  1.00  0.00    -0.025 A 
HETATM   21  C   UNL     1      43.955 -27.843  15.973  1.00  0.00     0.010 A 
HETATM   22  C   UNL     1      45.303 -27.556  15.827  1.00  0.00     0.001 A 
HETATM   23  C   UNL     1      45.972 -27.971  14.697  1.00  0.00     0.000 A 
HETATM   24  C   UNL     1      45.305 -28.676  13.726  1.00  0.00     0.001 A 
HETATM   25  C   UNL     1      43.962 -28.976  13.876  1.00  0.00     0.010 A 
ENDBRANCH  19  20
BRANCH  19  26
HETATM   26  C   UNL     1      41.619 -30.317  15.621  1.00  0.00     0.201 C 
HETATM   27  OXT UNL     1      41.644 -31.189  14.740  1.00  0.00    -0.646 OA
HETATM   28  O   UNL     1      41.438 -30.533  16.850  1.00  0.00    -0.646 OA
ENDBRANCH  19  26
ENDBRANCH  17  19
ENDBRANCH  13  15
TORSDOF 4
ENDMDL
MODEL 10
REMARK VINA RESULT:    -7.260      2.326      4.350
REMARK INTER + INTRA:         -10.097
REMARK INTER:                  -9.674
REMARK INTRA:                  -0.423
REMARK UNBOUND:                -1.140
REMARK  4 active torsions:
REMARK  status: ('A' for Active; 'I' for Inactive)
REMARK    1  A    between atoms: C_5  and  CA_19 
REMARK    2  A    between atoms: C_17  and  C_18 
REMARK       I    between atoms: C_18  and  N_23 
REMARK    3  A    between atoms: CA_19  and  C_20 
REMARK    4  A    between atoms: CA_19  and  N_23 
ROOT
HETATM    1  C   UNL     1      44.066 -25.296   9.878  1.00  0.00     0.194 A 
HETATM    2  C   UNL     1      40.692 -25.619   7.339  1.00  0.00     0.018 A 
HETATM    3  C   UNL     1      41.719 -24.796   6.896  1.00  0.00     0.002 A 
HETATM    4  C   UNL     1      42.862 -24.616   7.658  1.00  0.00     0.016 A 
HETATM    5  C   UNL     1      42.327 -26.701  10.613  1.00  0.00    -0.010 A 
HETATM    6  C   UNL     1      41.666 -27.581  11.472  1.00  0.00     0.013 A 
HETATM    7  C   UNL     1      42.286 -27.943  12.659  1.00  0.00     0.001 A 
HETATM    8  C   UNL     1      42.970 -25.286   8.862  1.00  0.00     0.027 A 
HETATM    9  C   UNL     1      43.544 -27.458  12.982  1.00  0.00     0.001 A 
HETATM   10  C   UNL     1      44.211 -26.587  12.130  1.00  0.00     0.016 A 
HETATM   11  C   UNL     1      43.592 -26.219  10.953  1.00  0.00     0.026 A 
HETATM   12  C   UNL     1      41.935 -26.132   9.316  1.00  0.00     0.005 A 
HETATM   13  C   UNL     1      40.790 -26.304   8.552  1.00  0.00     0.044 A 
HETATM   14  O   UNL     1      45.112 -24.680   9.838  1.00  0.00    -0.287 OA
ENDROOT
BRANCH  13  15
HETATM   15  C   UNL     1      39.686 -27.194   9.031  1.00  0.00     0.253 C 
HETATM   16  O   UNL     1      39.529 -28.319   8.547  1.00  0.00    -0.268 OA
HETATM   17  N   UNL     1      38.883 -26.671   9.990  1.00  0.00    -0.338 N 
ATOM     18  HN  UNL     1      39.065 -25.710  10.281  1.00  0.00     0.164 HD
BRANCH  17  19
HETATM   19  CA  UNL     1      37.778 -27.372  10.638  1.00  0.00     0.219 C 
BRANCH  19  20
HETATM   20  C   UNL     1      36.842 -26.469  11.420  1.00  0.00    -0.025 A 
HETATM   21  C   UNL     1      37.303 -25.262  11.912  1.00  0.00     0.010 A 
HETATM   22  C   UNL     1      36.469 -24.428  12.639  1.00  0.00     0.001 A 
HETATM   23  C   UNL     1      35.170 -24.810  12.889  1.00  0.00     0.000 A 
HETATM   24  C   UNL     1      34.703 -26.008  12.406  1.00  0.00     0.001 A 
HETATM   25  C   UNL     1      35.530 -26.836  11.668  1.00  0.00     0.010 A 
ENDBRANCH  19  20
BRANCH  19  26
HETATM   26  C   UNL     1      38.380 -28.427  11.600  1.00  0.00     0.201 C 
HETATM   27  OXT UNL     1      38.479 -29.590  11.185  1.00  0.00    -0.646 OA
HETATM   28  O   UNL     1      38.706 -28.038  12.754  1.00  0.00    -0.646 OA
ENDBRANCH  19  26
ENDBRANCH  17  19
ENDBRANCH  13  15
TORSDOF 4
ENDMDL
MODEL 11
REMARK VINA RESULT:    -7.155      3.141      7.549
REMARK INTER + INTRA:          -9.968
REMARK INTER:                  -8.940
REMARK INTRA:                  -1.028
REMARK UNBOUND:                -1.140
REMARK  4 active torsions:
REMARK  status: ('A' for Active; 'I' for Inactive)
REMARK    1  A    between atoms: C_5  and  CA_19 
REMARK    2  A    between atoms: C_17  and  C_18 
REMARK       I    between atoms: C_18  and  N_23 
REMARK    3  A    between atoms: CA_19  and  C_20 
REMARK    4  A    between atoms: CA_19  and  N_23 
ROOT
HETATM    1  C   UNL     1      39.724 -27.062   8.442  1.00  0.00     0.194 A 
HETATM    2  C   UNL     1      43.522 -26.340  10.171  1.00  0.00     0.018 A 
HETATM    3  C   UNL     1      43.460 -26.304   8.785  1.00  0.00     0.002 A 
HETATM    4  C   UNL     1      42.266 -26.536   8.121  1.00  0.00     0.016 A 
HETATM    5  C   UNL     1      39.835 -27.106  10.792  1.00  0.00    -0.010 A 
HETATM    6  C   UNL     1      39.356 -27.244  12.096  1.00  0.00     0.013 A 
HETATM    7  C   UNL     1      38.012 -27.535  12.283  1.00  0.00     0.001 A 
HETATM    8  C   UNL     1      41.130 -26.787   8.867  1.00  0.00     0.027 A 
HETATM    9  C   UNL     1      37.155 -27.668  11.201  1.00  0.00     0.001 A 
HETATM   10  C   UNL     1      37.623 -27.525   9.901  1.00  0.00     0.016 A 
HETATM   11  C   UNL     1      38.961 -27.246   9.713  1.00  0.00     0.026 A 
HETATM   12  C   UNL     1      41.181 -26.818  10.278  1.00  0.00     0.005 A 
HETATM   13  C   UNL     1      42.381 -26.590  10.937  1.00  0.00     0.044 A 
HETATM   14  O   UNL     1      39.299 -27.127   7.306  1.00  0.00    -0.287 OA
ENDROOT
BRANCH  13  15
HETATM   15  C   UNL     1      42.443 -26.627  12.432  1.00  0.00     0.253 C 
HETATM   16  O   UNL     1      42.224 -25.610  13.097  1.00  0.00    -0.268 OA
HETATM   17  N   UNL     1      42.776 -27.823  12.977  1.00  0.00    -0.338 N 
ATOM     18  HN  UNL     1      42.992 -28.587  12.336  1.00  0.00     0.164 HD
BRANCH  17  19
HETATM   19  CA  UNL     1      42.848 -28.105  14.408  1.00  0.00     0.219 C 
BRANCH  19  20
HETATM   20  C   UNL     1      44.030 -28.968  14.812  1.00  0.00    -0.025 A 
HETATM   21  C   UNL     1      44.855 -29.503  13.839  1.00  0.00     0.010 A 
HETATM   22  C   UNL     1      45.930 -30.305  14.186  1.00  0.00     0.001 A 
HETATM   23  C   UNL     1      46.175 -30.585  15.511  1.00  0.00     0.000 A 
HETATM   24  C   UNL     1      45.361 -30.060  16.484  1.00  0.00     0.001 A 
HETATM   25  C   UNL     1      44.294 -29.248  16.141  1.00  0.00     0.010 A 
ENDBRANCH  19  20
BRANCH  19  26
HETATM   26  C   UNL     1      41.538 -28.819  14.822  1.00  0.00     0.201 C 
HETATM   27  OXT UNL     1      41.359 -29.974  14.410  1.00  0.00    -0.646 OA
HETATM   28  O   UNL     1      40.725 -28.169  15.534  1.00  0.00    -0.646 OA
ENDBRANCH  19  26
ENDBRANCH  17  19
ENDBRANCH  13  15
TORSDOF 4
ENDMDL
MODEL 12
REMARK VINA RESULT:    -7.038      3.492      8.582
REMARK INTER + INTRA:          -9.824
REMARK INTER:                  -9.021
REMARK INTRA:                  -0.803
REMARK UNBOUND:                -1.140
REMARK  4 active torsions:
REMARK  status: ('A' for Active; 'I' for Inactive)
REMARK    1  A    between atoms: C_5  and  CA_19 
REMARK    2  A    between atoms: C_17  and  C_18 
REMARK       I    between atoms: C_18  and  N_23 
REMARK    3  A    between atoms: CA_19  and  C_20 
REMARK    4  A    between atoms: CA_19  and  N_23 
ROOT
HETATM    1  C   UNL     1      39.497 -27.962  10.667  1.00  0.00     0.194 A 
HETATM    2  C   UNL     1      41.903 -26.124   7.705  1.00  0.00     0.018 A 
HETATM    3  C   UNL     1      40.768 -26.784   7.253  1.00  0.00     0.002 A 
HETATM    4  C   UNL     1      39.920 -27.425   8.141  1.00  0.00     0.016 A 
HETATM    5  C   UNL     1      41.415 -26.828  11.424  1.00  0.00    -0.010 A 
HETATM    6  C   UNL     1      42.336 -26.348  12.357  1.00  0.00     0.013 A 
HETATM    7  C   UNL     1      42.133 -26.634  13.700  1.00  0.00     0.001 A 
HETATM    8  C   UNL     1      40.215 -27.381   9.491  1.00  0.00     0.027 A 
HETATM    9  C   UNL     1      41.029 -27.365  14.113  1.00  0.00     0.001 A 
HETATM   10  C   UNL     1      40.104 -27.839  13.191  1.00  0.00     0.016 A 
HETATM   11  C   UNL     1      40.311 -27.564  11.855  1.00  0.00     0.026 A 
HETATM   12  C   UNL     1      41.362 -26.706   9.961  1.00  0.00     0.005 A 
HETATM   13  C   UNL     1      42.211 -26.069   9.066  1.00  0.00     0.044 A 
HETATM   14  O   UNL     1      38.476 -28.620  10.653  1.00  0.00    -0.287 OA
ENDROOT
BRANCH  13  15
HETATM   15  C   UNL     1      43.432 -25.357   9.557  1.00  0.00     0.253 C 
HETATM   16  O   UNL     1      43.368 -24.184   9.936  1.00  0.00    -0.268 OA
HETATM   17  N   UNL     1      44.584 -26.073   9.526  1.00  0.00    -0.338 N 
ATOM     18  HN  UNL     1      44.538 -27.017   9.141  1.00  0.00     0.164 HD
BRANCH  17  19
HETATM   19  CA  UNL     1      45.881 -25.601  10.000  1.00  0.00     0.219 C 
BRANCH  19  20
HETATM   20  C   UNL     1      47.040 -25.939   9.079  1.00  0.00    -0.025 A 
HETATM   21  C   UNL     1      47.562 -24.966   8.246  1.00  0.00     0.010 A 
HETATM   22  C   UNL     1      48.610 -25.257   7.388  1.00  0.00     0.001 A 
HETATM   23  C   UNL     1      49.131 -26.531   7.351  1.00  0.00     0.000 A 
HETATM   24  C   UNL     1      48.618 -27.504   8.173  1.00  0.00     0.001 A 
HETATM   25  C   UNL     1      47.580 -27.213   9.041  1.00  0.00     0.010 A 
ENDBRANCH  19  20
BRANCH  19  26
HETATM   26  C   UNL     1      46.143 -26.233  11.390  1.00  0.00     0.201 C 
HETATM   27  OXT UNL     1      45.425 -27.184  11.731  1.00  0.00    -0.646 OA
HETATM   28  O   UNL     1      47.054 -25.722  12.096  1.00  0.00    -0.646 OA
ENDBRANCH  19  26
ENDBRANCH  17  19
ENDBRANCH  13  15
TORSDOF 4
ENDMDL
MODEL 13
REMARK VINA RESULT:    -6.969      3.096      6.862
REMARK INTER + INTRA:          -9.738
REMARK INTER:                  -8.784
REMARK INTRA:                  -0.954
REMARK UNBOUND:                -1.140
REMARK  4 active torsions:
REMARK  status: ('A' for Active; 'I' for Inactive)
REMARK    1  A    between atoms: C_5  and  CA_19 
REMARK    2  A    between atoms: C_17  and  C_18 
REMARK       I    between atoms: C_18  and  N_23 
REMARK    3  A    between atoms: CA_19  and  C_20 
REMARK    4  A    between atoms: CA_19  and  N_23 
ROOT
HETATM    1  C   UNL     1      39.731 -27.238   8.623  1.00  0.00     0.194 A 
HETATM    2  C   UNL     1      38.115 -27.370  12.536  1.00  0.00     0.018 A 
HETATM    3  C   UNL     1      37.238 -27.657  11.498  1.00  0.00     0.002 A 
HETATM    4  C   UNL     1      37.666 -27.631  10.180  1.00  0.00     0.016 A 
HETATM    5  C   UNL     1      41.212 -26.768  10.390  1.00  0.00    -0.010 A 
HETATM    6  C   UNL     1      42.429 -26.434  10.989  1.00  0.00     0.013 A 
HETATM    7  C   UNL     1      43.531 -26.211  10.176  1.00  0.00     0.001 A 
HETATM    8  C   UNL     1      38.990 -27.332   9.918  1.00  0.00     0.027 A 
HETATM    9  C   UNL     1      43.436 -26.333   8.798  1.00  0.00     0.001 A 
HETATM   10  C   UNL     1      42.231 -26.672   8.195  1.00  0.00     0.016 A 
HETATM   11  C   UNL     1      41.132 -26.885   9.002  1.00  0.00     0.026 A 
HETATM   12  C   UNL     1      39.890 -27.047  10.967  1.00  0.00     0.005 A 
HETATM   13  C   UNL     1      39.455 -27.069  12.284  1.00  0.00     0.044 A 
HETATM   14  O   UNL     1      39.284 -27.406   7.506  1.00  0.00    -0.287 OA
ENDROOT
BRANCH  13  15
HETATM   15  C   UNL     1      40.403 -26.762  13.401  1.00  0.00     0.253 C 
HETATM   16  O   UNL     1      40.525 -25.609  13.825  1.00  0.00    -0.268 OA
HETATM   17  N   UNL     1      41.115 -27.815  13.874  1.00  0.00    -0.338 N 
ATOM     18  HN  UNL     1      40.980 -28.716  13.415  1.00  0.00     0.164 HD
BRANCH  17  19
HETATM   19  CA  UNL     1      42.057 -27.761  14.988  1.00  0.00     0.219 C 
BRANCH  19  20
HETATM   20  C   UNL     1      43.297 -28.616  14.795  1.00  0.00    -0.025 A 
HETATM   21  C   UNL     1      43.290 -29.635  13.860  1.00  0.00     0.010 A 
HETATM   22  C   UNL     1      44.406 -30.435  13.677  1.00  0.00     0.001 A 
HETATM   23  C   UNL     1      45.531 -30.226  14.443  1.00  0.00     0.000 A 
HETATM   24  C   UNL     1      45.547 -29.218  15.375  1.00  0.00     0.001 A 
HETATM   25  C   UNL     1      44.438 -28.408  15.550  1.00  0.00     0.010 A 
ENDBRANCH  19  20
BRANCH  19  26
HETATM   26  C   UNL     1      41.317 -28.230  16.265  1.00  0.00     0.201 C 
HETATM   27  OXT UNL     1      40.711 -27.372  16.924  1.00  0.00    -0.646 OA
HETATM   28  O   UNL     1      41.400 -29.451  16.567  1.00  0.00    -0.646 OA
ENDBRANCH  19  26
ENDBRANCH  17  19
ENDBRANCH  13  15
TORSDOF 4
ENDMDL
MODEL 14
REMARK VINA RESULT:    -6.965      3.242      7.315
REMARK INTER + INTRA:          -9.734
REMARK INTER:                  -8.748
REMARK INTRA:                  -0.986
REMARK UNBOUND:                -1.140
REMARK  4 active torsions:
REMARK  status: ('A' for Active; 'I' for Inactive)
REMARK    1  A    between atoms: C_5  and  CA_19 
REMARK    2  A    between atoms: C_17  and  C_18 
REMARK       I    between atoms: C_18  and  N_23 
REMARK    3  A    between atoms: CA_19  and  C_20 
REMARK    4  A    between atoms: CA_19  and  N_23 
ROOT
HETATM    1  C   UNL     1      39.107 -27.372   8.799  1.00  0.00     0.194 A 
HETATM    2  C   UNL     1      40.323 -27.608  12.849  1.00  0.00     0.018 A 
HETATM    3  C   UNL     1      39.137 -28.253  12.524  1.00  0.00     0.002 A 
HETATM    4  C   UNL     1      38.648 -28.228  11.228  1.00  0.00     0.016 A 
HETATM    5  C   UNL     1      41.123 -26.295   9.357  1.00  0.00    -0.010 A 
HETATM    6  C   UNL     1      42.279 -25.544   9.136  1.00  0.00     0.013 A 
HETATM    7  C   UNL     1      42.532 -25.073   7.855  1.00  0.00     0.001 A 
HETATM    8  C   UNL     1      39.373 -27.562  10.258  1.00  0.00     0.027 A 
HETATM    9  C   UNL     1      41.666 -25.354   6.809  1.00  0.00     0.001 A 
HETATM   10  C   UNL     1      40.517 -26.107   7.020  1.00  0.00     0.016 A 
HETATM   11  C   UNL     1      40.260 -26.568   8.295  1.00  0.00     0.026 A 
HETATM   12  C   UNL     1      40.584 -26.910  10.577  1.00  0.00     0.005 A 
HETATM   13  C   UNL     1      41.066 -26.934  11.878  1.00  0.00     0.044 A 
HETATM   14  O   UNL     1      38.154 -27.781   8.166  1.00  0.00    -0.287 OA
ENDROOT
BRANCH  13  15
HETATM   15  C   UNL     1      42.346 -26.240  12.224  1.00  0.00     0.253 C 
HETATM   16  O   UNL     1      42.355 -25.039  12.509  1.00  0.00    -0.268 OA
HETATM   17  N   UNL     1      43.463 -27.008  12.175  1.00  0.00    -0.338 N 
ATOM     18  HN  UNL     1      43.354 -27.976  11.873  1.00  0.00     0.164 HD
BRANCH  17  19
HETATM   19  CA  UNL     1      44.809 -26.558  12.519  1.00  0.00     0.219 C 
BRANCH  19  20
HETATM   20  C   UNL     1      45.741 -26.418  11.329  1.00  0.00    -0.025 A 
HETATM   21  C   UNL     1      45.219 -26.361  10.050  1.00  0.00     0.010 A 
HETATM   22  C   UNL     1      46.052 -26.246   8.949  1.00  0.00     0.001 A 
HETATM   23  C   UNL     1      47.417 -26.203   9.126  1.00  0.00     0.000 A 
HETATM   24  C   UNL     1      47.945 -26.261  10.392  1.00  0.00     0.001 A 
HETATM   25  C   UNL     1      47.114 -26.362  11.494  1.00  0.00     0.010 A 
ENDBRANCH  19  20
BRANCH  19  26
HETATM   26  C   UNL     1      45.415 -27.578  13.515  1.00  0.00     0.201 C 
HETATM   27  OXT UNL     1      45.329 -28.781  13.227  1.00  0.00    -0.646 OA
HETATM   28  O   UNL     1      45.935 -27.120  14.568  1.00  0.00    -0.646 OA
ENDBRANCH  19  26
ENDBRANCH  17  19
ENDBRANCH  13  15
TORSDOF 4
ENDMDL
MODEL 15
REMARK VINA RESULT:    -6.886      3.092      7.702
REMARK INTER + INTRA:          -9.636
REMARK INTER:                  -8.252
REMARK INTRA:                  -1.384
REMARK UNBOUND:                -1.140
REMARK  4 active torsions:
REMARK  status: ('A' for Active; 'I' for Inactive)
REMARK    1  A    between atoms: C_5  and  CA_19 
REMARK    2  A    between atoms: C_17  and  C_18 
REMARK       I    between atoms: C_18  and  N_23 
REMARK    3  A    between atoms: CA_19  and  C_20 
REMARK    4  A    between atoms: CA_19  and  N_23 
ROOT
HETATM    1  C   UNL     1      38.971 -27.916  10.532  1.00  0.00     0.194 A 
HETATM    2  C   UNL     1      41.170 -26.473   7.213  1.00  0.00     0.018 A 
HETATM    3  C   UNL     1      39.903 -26.972   6.941  1.00  0.00     0.002 A 
HETATM    4  C   UNL     1      39.107 -27.477   7.957  1.00  0.00     0.016 A 
HETATM    5  C   UNL     1      41.113 -27.053  10.984  1.00  0.00    -0.010 A 
HETATM    6  C   UNL     1      42.213 -26.696  11.767  1.00  0.00     0.013 A 
HETATM    7  C   UNL     1      42.161 -26.932  13.133  1.00  0.00     0.001 A 
HETATM    8  C   UNL     1      39.591 -27.457   9.252  1.00  0.00     0.027 A 
HETATM    9  C   UNL     1      41.036 -27.496  13.716  1.00  0.00     0.001 A 
HETATM   10  C   UNL     1      39.935 -27.848  12.945  1.00  0.00     0.016 A 
HETATM   11  C   UNL     1      39.989 -27.622  11.585  1.00  0.00     0.026 A 
HETATM   12  C   UNL     1      40.874 -26.943   9.539  1.00  0.00     0.005 A 
HETATM   13  C   UNL     1      41.669 -26.444   8.517  1.00  0.00     0.044 A 
HETATM   14  O   UNL     1      37.878 -28.424  10.679  1.00  0.00    -0.287 OA
ENDROOT
BRANCH  13  15
HETATM   15  C   UNL     1      43.033 -25.904   8.813  1.00  0.00     0.253 C 
HETATM   16  O   UNL     1      44.013 -26.654   8.856  1.00  0.00    -0.268 OA
HETATM   17  N   UNL     1      43.099 -24.570   9.049  1.00  0.00    -0.338 N 
ATOM     18  HN  UNL     1      42.221 -24.049   9.045  1.00  0.00     0.164 HD
BRANCH  17  19
HETATM   19  CA  UNL     1      44.324 -23.821   9.309  1.00  0.00     0.219 C 
BRANCH  19  20
HETATM   20  C   UNL     1      44.642 -23.639  10.782  1.00  0.00    -0.025 A 
HETATM   21  C   UNL     1      43.664 -23.177  11.644  1.00  0.00     0.010 A 
HETATM   22  C   UNL     1      43.936 -22.992  12.990  1.00  0.00     0.001 A 
HETATM   23  C   UNL     1      45.197 -23.256  13.475  1.00  0.00     0.000 A 
HETATM   24  C   UNL     1      46.175 -23.713  12.627  1.00  0.00     0.001 A 
HETATM   25  C   UNL     1      45.902 -23.912  11.285  1.00  0.00     0.010 A 
ENDBRANCH  19  20
BRANCH  19  26
HETATM   26  C   UNL     1      44.182 -22.426   8.649  1.00  0.00     0.201 C 
HETATM   27  OXT UNL     1      43.066 -22.109   8.214  1.00  0.00    -0.646 OA
HETATM   28  O   UNL     1      45.219 -21.712   8.576  1.00  0.00    -0.646 OA
ENDBRANCH  19  26
ENDBRANCH  17  19
ENDBRANCH  13  15
TORSDOF 4
ENDMDL
MODEL 16
REMARK VINA RESULT:    -6.883      3.009      5.563
REMARK INTER + INTRA:          -9.632
REMARK INTER:                  -8.632
REMARK INTRA:                  -1.000
REMARK UNBOUND:                -1.140
REMARK  4 active torsions:
REMARK  status: ('A' for Active; 'I' for Inactive)
REMARK    1  A    between atoms: C_5  and  CA_19 
REMARK    2  A    between atoms: C_17  and  C_18 
REMARK       I    between atoms: C_18  and  N_23 
REMARK    3  A    between atoms: CA_19  and  C_20 
REMARK    4  A    between atoms: CA_19  and  N_23 
ROOT
HETATM    1  C   UNL     1      39.917 -26.697   7.721  1.00  0.00     0.194 A 
HETATM    2  C   UNL     1      37.159 -27.607  10.804  1.00  0.00     0.018 A 
HETATM    3  C   UNL     1      36.635 -27.495   9.523  1.00  0.00     0.002 A 
HETATM    4  C   UNL     1      37.452 -27.191   8.446  1.00  0.00     0.016 A 
HETATM    5  C   UNL     1      40.798 -26.904   9.893  1.00  0.00    -0.010 A 
HETATM    6  C   UNL     1      41.783 -26.905  10.882  1.00  0.00     0.013 A 
HETATM    7  C   UNL     1      43.093 -26.633  10.516  1.00  0.00     0.001 A 
HETATM    8  C   UNL     1      38.806 -27.018   8.668  1.00  0.00     0.027 A 
HETATM    9  C   UNL     1      43.426 -26.383   9.193  1.00  0.00     0.001 A 
HETATM   10  C   UNL     1      42.452 -26.388   8.202  1.00  0.00     0.016 A 
HETATM   11  C   UNL     1      41.147 -26.648   8.566  1.00  0.00     0.026 A 
HETATM   12  C   UNL     1      39.349 -27.139   9.965  1.00  0.00     0.005 A 
HETATM   13  C   UNL     1      38.525 -27.438  11.041  1.00  0.00     0.044 A 
HETATM   14  O   UNL     1      39.831 -26.510   6.524  1.00  0.00    -0.287 OA
ENDROOT
BRANCH  13  15
HETATM   15  C   UNL     1      39.093 -27.561  12.420  1.00  0.00     0.253 C 
HETATM   16  O   UNL     1      39.522 -28.643  12.831  1.00  0.00    -0.268 OA
HETATM   17  N   UNL     1      39.075 -26.429  13.166  1.00  0.00    -0.338 N 
ATOM     18  HN  UNL     1      38.647 -25.601  12.752  1.00  0.00     0.164 HD
BRANCH  17  19
HETATM   19  CA  UNL     1      39.619 -26.301  14.515  1.00  0.00     0.219 C 
BRANCH  19  20
HETATM   20  C   UNL     1      39.031 -25.155  15.317  1.00  0.00    -0.025 A 
HETATM   21  C   UNL     1      38.393 -24.116  14.664  1.00  0.00     0.010 A 
HETATM   22  C   UNL     1      37.861 -23.053  15.375  1.00  0.00     0.001 A 
HETATM   23  C   UNL     1      37.978 -23.020  16.747  1.00  0.00     0.000 A 
HETATM   24  C   UNL     1      38.612 -24.047  17.404  1.00  0.00     0.001 A 
HETATM   25  C   UNL     1      39.132 -25.116  16.697  1.00  0.00     0.010 A 
ENDBRANCH  19  20
BRANCH  19  26
HETATM   26  C   UNL     1      41.151 -26.099  14.397  1.00  0.00     0.201 C 
HETATM   27  OXT UNL     1      41.551 -25.068  13.838  1.00  0.00    -0.646 OA
HETATM   28  O   UNL     1      41.891 -27.010  14.857  1.00  0.00    -0.646 OA
ENDBRANCH  19  26
ENDBRANCH  17  19
ENDBRANCH  13  15
TORSDOF 4
ENDMDL
MODEL 17
REMARK VINA RESULT:    -6.871      2.152      6.257
REMARK INTER + INTRA:          -9.617
REMARK INTER:                  -8.715
REMARK INTRA:                  -0.902
REMARK UNBOUND:                -1.140
REMARK  4 active torsions:
REMARK  status: ('A' for Active; 'I' for Inactive)
REMARK    1  A    between atoms: C_5  and  CA_19 
REMARK    2  A    between atoms: C_17  and  C_18 
REMARK       I    between atoms: C_18  and  N_23 
REMARK    3  A    between atoms: CA_19  and  C_20 
REMARK    4  A    between atoms: CA_19  and  N_23 
ROOT
HETATM    1  C   UNL     1      36.875 -25.531   8.142  1.00  0.00     0.194 A 
HETATM    2  C   UNL     1      35.981 -27.271  11.898  1.00  0.00     0.018 A 
HETATM    3  C   UNL     1      34.949 -26.580  11.279  1.00  0.00     0.002 A 
HETATM    4  C   UNL     1      35.141 -25.967  10.052  1.00  0.00     0.016 A 
HETATM    5  C   UNL     1      38.615 -26.717   9.192  1.00  0.00    -0.010 A 
HETATM    6  C   UNL     1      39.899 -27.245   9.342  1.00  0.00     0.013 A 
HETATM    7  C   UNL     1      40.834 -27.014   8.343  1.00  0.00     0.001 A 
HETATM    8  C   UNL     1      36.379 -26.070   9.445  1.00  0.00     0.027 A 
HETATM    9  C   UNL     1      40.500 -26.288   7.210  1.00  0.00     0.001 A 
HETATM   10  C   UNL     1      39.222 -25.765   7.050  1.00  0.00     0.016 A 
HETATM   11  C   UNL     1      38.295 -25.987   8.047  1.00  0.00     0.026 A 
HETATM   12  C   UNL     1      37.433 -26.778  10.063  1.00  0.00     0.005 A 
HETATM   13  C   UNL     1      37.236 -27.386  11.294  1.00  0.00     0.044 A 
HETATM   14  O   UNL     1      36.256 -24.862   7.340  1.00  0.00    -0.287 OA
ENDROOT
BRANCH  13  15
HETATM   15  C   UNL     1      38.350 -28.132  11.958  1.00  0.00     0.253 C 
HETATM   16  O   UNL     1      38.659 -29.267  11.584  1.00  0.00    -0.268 OA
HETATM   17  N   UNL     1      38.956 -27.490  12.988  1.00  0.00    -0.338 N 
ATOM     18  HN  UNL     1      38.587 -26.577  13.253  1.00  0.00     0.164 HD
BRANCH  17  19
HETATM   19  CA  UNL     1      40.094 -28.002  13.746  1.00  0.00     0.219 C 
BRANCH  19  20
HETATM   20  C   UNL     1      40.285 -27.344  15.100  1.00  0.00    -0.025 A 
HETATM   21  C   UNL     1      39.344 -26.445  15.567  1.00  0.00     0.010 A 
HETATM   22  C   UNL     1      39.506 -25.822  16.793  1.00  0.00     0.001 A 
HETATM   23  C   UNL     1      40.622 -26.090  17.554  1.00  0.00     0.000 A 
HETATM   24  C   UNL     1      41.564 -26.980  17.099  1.00  0.00     0.001 A 
HETATM   25  C   UNL     1      41.397 -27.613  15.879  1.00  0.00     0.010 A 
ENDBRANCH  19  20
BRANCH  19  26
HETATM   26  C   UNL     1      41.372 -27.788  12.897  1.00  0.00     0.201 C 
HETATM   27  OXT UNL     1      41.600 -26.641  12.485  1.00  0.00    -0.646 OA
HETATM   28  O   UNL     1      42.085 -28.800  12.659  1.00  0.00    -0.646 OA
ENDBRANCH  19  26
ENDBRANCH  17  19
ENDBRANCH  13  15
TORSDOF 4
ENDMDL
MODEL 18
REMARK VINA RESULT:    -6.798      3.796      8.294
REMARK INTER + INTRA:          -9.527
REMARK INTER:                  -8.837
REMARK INTRA:                  -0.690
REMARK UNBOUND:                -1.140
REMARK  4 active torsions:
REMARK  status: ('A' for Active; 'I' for Inactive)
REMARK    1  A    between atoms: C_5  and  CA_19 
REMARK    2  A    between atoms: C_17  and  C_18 
REMARK       I    between atoms: C_18  and  N_23 
REMARK    3  A    between atoms: CA_19  and  C_20 
REMARK    4  A    between atoms: CA_19  and  N_23 
ROOT
HETATM    1  C   UNL     1      40.009 -28.057  10.509  1.00  0.00     0.194 A 
HETATM    2  C   UNL     1      43.316 -26.299  12.487  1.00  0.00     0.018 A 
HETATM    3  C   UNL     1      42.530 -27.156  13.245  1.00  0.00     0.002 A 
HETATM    4  C   UNL     1      41.420 -27.775  12.694  1.00  0.00     0.016 A 
HETATM    5  C   UNL     1      41.356 -26.614   9.228  1.00  0.00    -0.010 A 
HETATM    6  C   UNL     1      41.763 -25.912   8.092  1.00  0.00     0.013 A 
HETATM    7  C   UNL     1      41.019 -26.042   6.927  1.00  0.00     0.001 A 
HETATM    8  C   UNL     1      41.118 -27.537  11.367  1.00  0.00     0.027 A 
HETATM    9  C   UNL     1      39.903 -26.865   6.883  1.00  0.00     0.001 A 
HETATM   10  C   UNL     1      39.496 -27.572   8.008  1.00  0.00     0.016 A 
HETATM   11  C   UNL     1      40.230 -27.436   9.169  1.00  0.00     0.026 A 
HETATM   12  C   UNL     1      41.915 -26.673  10.585  1.00  0.00     0.005 A 
HETATM   13  C   UNL     1      43.023 -26.052  11.144  1.00  0.00     0.044 A 
HETATM   14  O   UNL     1      39.120 -28.816  10.838  1.00  0.00    -0.287 OA
ENDROOT
BRANCH  13  15
HETATM   15  C   UNL     1      43.869 -25.130  10.322  1.00  0.00     0.253 C 
HETATM   16  O   UNL     1      43.442 -24.027   9.971  1.00  0.00    -0.268 OA
HETATM   17  N   UNL     1      45.095 -25.602   9.984  1.00  0.00    -0.338 N 
ATOM     18  HN  UNL     1      45.330 -26.550  10.278  1.00  0.00     0.164 HD
BRANCH  17  19
HETATM   19  CA  UNL     1      46.105 -24.861   9.234  1.00  0.00     0.219 C 
BRANCH  19  20
HETATM   20  C   UNL     1      47.198 -25.730   8.637  1.00  0.00    -0.025 A 
HETATM   21  C   UNL     1      47.305 -27.055   9.016  1.00  0.00     0.010 A 
HETATM   22  C   UNL     1      48.304 -27.862   8.495  1.00  0.00     0.001 A 
HETATM   23  C   UNL     1      49.209 -27.338   7.600  1.00  0.00     0.000 A 
HETATM   24  C   UNL     1      49.111 -26.022   7.219  1.00  0.00     0.001 A 
HETATM   25  C   UNL     1      48.107 -25.218   7.728  1.00  0.00     0.010 A 
ENDBRANCH  19  20
BRANCH  19  26
HETATM   26  C   UNL     1      46.749 -23.826  10.189  1.00  0.00     0.201 C 
HETATM   27  OXT UNL     1      46.746 -22.639   9.834  1.00  0.00    -0.646 OA
HETATM   28  O   UNL     1      47.258 -24.263  11.257  1.00  0.00    -0.646 OA
ENDBRANCH  19  26
ENDBRANCH  17  19
ENDBRANCH  13  15
TORSDOF 4
ENDMDL
MODEL 19
REMARK VINA RESULT:    -6.785      2.921      6.186
REMARK INTER + INTRA:          -9.512
REMARK INTER:                  -8.593
REMARK INTRA:                  -0.919
REMARK UNBOUND:                -1.140
REMARK  4 active torsions:
REMARK  status: ('A' for Active; 'I' for Inactive)
REMARK    1  A    between atoms: C_5  and  CA_19 
REMARK    2  A    between atoms: C_17  and  C_18 
REMARK       I    between atoms: C_18  and  N_23 
REMARK    3  A    between atoms: CA_19  and  C_20 
REMARK    4  A    between atoms: CA_19  and  N_23 
ROOT
HETATM    1  C   UNL     1      39.822 -26.806   8.183  1.00  0.00     0.194 A 
HETATM    2  C   UNL     1      37.913 -27.828  11.823  1.00  0.00     0.018 A 
HETATM    3  C   UNL     1      37.106 -27.792  10.693  1.00  0.00     0.002 A 
HETATM    4  C   UNL     1      37.632 -27.460   9.456  1.00  0.00     0.016 A 
HETATM    5  C   UNL     1      41.184 -26.883  10.100  1.00  0.00    -0.010 A 
HETATM    6  C   UNL     1      42.364 -26.781  10.839  1.00  0.00     0.013 A 
HETATM    7  C   UNL     1      43.532 -26.423  10.181  1.00  0.00     0.001 A 
HETATM    8  C   UNL     1      38.982 -27.181   9.362  1.00  0.00     0.027 A 
HETATM    9  C   UNL     1      43.536 -26.188   8.815  1.00  0.00     0.001 A 
HETATM   10  C   UNL     1      42.368 -26.295   8.071  1.00  0.00     0.016 A 
HETATM   11  C   UNL     1      41.204 -26.641   8.726  1.00  0.00     0.026 A 
HETATM   12  C   UNL     1      39.813 -27.222  10.503  1.00  0.00     0.005 A 
HETATM   13  C   UNL     1      39.279 -27.550  11.741  1.00  0.00     0.044 A 
HETATM   14  O   UNL     1      39.454 -26.661   7.034  1.00  0.00    -0.287 OA
ENDROOT
BRANCH  13  15
HETATM   15  C   UNL     1      40.152 -27.590  12.956  1.00  0.00     0.253 C 
HETATM   16  O   UNL     1      40.709 -28.637  13.298  1.00  0.00    -0.268 OA
HETATM   17  N   UNL     1      40.257 -26.425  13.643  1.00  0.00    -0.338 N 
ATOM     18  HN  UNL     1      39.710 -25.632  13.307  1.00  0.00     0.164 HD
BRANCH  17  19
HETATM   19  CA  UNL     1      41.088 -26.217  14.824  1.00  0.00     0.219 C 
BRANCH  19  20
HETATM   20  C   UNL     1      40.338 -26.323  16.140  1.00  0.00    -0.025 A 
HETATM   21  C   UNL     1      40.991 -26.784  17.268  1.00  0.00     0.010 A 
HETATM   22  C   UNL     1      40.322 -26.902  18.475  1.00  0.00     0.001 A 
HETATM   23  C   UNL     1      38.988 -26.570  18.553  1.00  0.00     0.000 A 
HETATM   24  C   UNL     1      38.330 -26.113  17.437  1.00  0.00     0.001 A 
HETATM   25  C   UNL     1      39.000 -25.982  16.234  1.00  0.00     0.010 A 
ENDBRANCH  19  20
BRANCH  19  26
HETATM   26  C   UNL     1      41.725 -24.808  14.720  1.00  0.00     0.201 C 
HETATM   27  OXT UNL     1      42.861 -24.657  15.191  1.00  0.00    -0.646 OA
HETATM   28  O   UNL     1      41.034 -23.900  14.185  1.00  0.00    -0.646 OA
ENDBRANCH  19  26
ENDBRANCH  17  19
ENDBRANCH  13  15
TORSDOF 4
ENDMDL
MODEL 20
REMARK VINA RESULT:    -6.743      6.066      9.043
REMARK INTER + INTRA:          -9.459
REMARK INTER:                  -8.589
REMARK INTRA:                  -0.870
REMARK UNBOUND:                -1.140
REMARK  4 active torsions:
REMARK  status: ('A' for Active; 'I' for Inactive)
REMARK    1  A    between atoms: C_5  and  CA_19 
REMARK    2  A    between atoms: C_17  and  C_18 
REMARK       I    between atoms: C_18  and  N_23 
REMARK    3  A    between atoms: CA_19  and  C_20 
REMARK    4  A    between atoms: CA_19  and  N_23 
ROOT
HETATM    1  C   UNL     1      50.019 -24.783   6.507  1.00  0.00     0.194 A 
HETATM    2  C   UNL     1      47.844 -21.262   7.409  1.00  0.00     0.018 A 
HETATM    3  C   UNL     1      48.938 -21.111   6.567  1.00  0.00     0.002 A 
HETATM    4  C   UNL     1      49.720 -22.200   6.218  1.00  0.00     0.016 A 
HETATM    5  C   UNL     1      48.155 -25.031   7.922  1.00  0.00    -0.010 A 
HETATM    6  C   UNL     1      47.240 -25.708   8.730  1.00  0.00     0.013 A 
HETATM    7  C   UNL     1      47.391 -27.077   8.903  1.00  0.00     0.001 A 
HETATM    8  C   UNL     1      49.381 -23.446   6.710  1.00  0.00     0.027 A 
HETATM    9  C   UNL     1      48.417 -27.765   8.274  1.00  0.00     0.001 A 
HETATM   10  C   UNL     1      49.327 -27.099   7.462  1.00  0.00     0.016 A 
HETATM   11  C   UNL     1      49.184 -25.737   7.297  1.00  0.00     0.026 A 
HETATM   12  C   UNL     1      48.266 -23.611   7.561  1.00  0.00     0.005 A 
HETATM   13  C   UNL     1      47.489 -22.516   7.912  1.00  0.00     0.044 A 
HETATM   14  O   UNL     1      51.007 -25.033   5.846  1.00  0.00    -0.287 OA
ENDROOT
BRANCH  13  15
HETATM   15  C   UNL     1      46.310 -22.683   8.818  1.00  0.00     0.253 C 
HETATM   16  O   UNL     1      46.421 -22.513  10.035  1.00  0.00    -0.268 OA
HETATM   17  N   UNL     1      45.152 -23.050   8.214  1.00  0.00    -0.338 N 
ATOM     18  HN  UNL     1      45.180 -23.219   7.208  1.00  0.00     0.164 HD
BRANCH  17  19
HETATM   19  CA  UNL     1      43.869 -23.221   8.889  1.00  0.00     0.219 C 
BRANCH  19  20
HETATM   20  C   UNL     1      43.003 -24.323   8.306  1.00  0.00    -0.025 A 
HETATM   21  C   UNL     1      43.095 -25.608   8.810  1.00  0.00     0.010 A 
HETATM   22  C   UNL     1      42.324 -26.632   8.285  1.00  0.00     0.001 A 
HETATM   23  C   UNL     1      41.465 -26.374   7.239  1.00  0.00     0.000 A 
HETATM   24  C   UNL     1      41.368 -25.102   6.731  1.00  0.00     0.001 A 
HETATM   25  C   UNL     1      42.127 -24.075   7.264  1.00  0.00     0.010 A 
ENDBRANCH  19  20
BRANCH  19  26
HETATM   26  C   UNL     1      43.100 -21.879   8.805  1.00  0.00     0.201 C 
HETATM   27  OXT UNL     1      42.107 -21.741   9.534  1.00  0.00    -0.646 OA
HETATM   28  O   UNL     1      43.519 -21.023   7.980  1.00  0.00    -0.646 OA
ENDBRANCH  19  26
ENDBRANCH  17  19
ENDBRANCH  13  15
TORSDOF 4
ENDMDL
