MODEL 1
REMARK VINA RESULT:   -10.169      0.000      0.000
REMARK INTER + INTRA:         -13.357
REMARK INTER:                 -12.844
REMARK INTRA:                  -0.513
REMARK UNBOUND:                -0.513
REMARK  5 active torsions:
REMARK  status: ('A' for Active; 'I' for Inactive)
REMARK    1  A    between atoms: C_9  and  N_22 
REMARK    2  A    between atoms: C_9  and  C_11 
REMARK    3  A    between atoms: C_10  and  C_12 
REMARK    4  A    between atoms: C_11  and  C_12 
REMARK    5  A    between atoms: C_13  and  O_25 
ROOT
HETATM    1  C   UNL     1      17.188 -12.371  -3.006  1.00  0.00     0.211 C 
ENDROOT
BRANCH   1   2
HETATM    2  N   UNL     1      16.454 -13.631  -2.971  1.00  0.00    -0.303 N 
HETATM    3  C   UNL     1      16.150 -14.282  -4.136  1.00  0.00     0.187 A 
HETATM    4  N   UNL     1      15.527 -15.398  -4.243  1.00  0.00    -0.351 N 
HETATM    5  C   UNL     1      15.122 -16.000  -3.052  1.00  0.00     0.048 A 
ATOM      6  HN  UNL     1      15.337 -15.822  -5.151  1.00  0.00     0.166 HD
HETATM    7  C   UNL     1      15.379 -15.424  -1.804  1.00  0.00     0.059 A 
HETATM    8  C   UNL     1      14.416 -17.201  -3.117  1.00  0.00     0.030 A 
HETATM    9  C   UNL     1      16.091 -14.145  -1.731  1.00  0.00     0.261 A 
HETATM   10  C   UNL     1      14.936 -16.046  -0.636  1.00  0.00     0.019 A 
HETATM   11  O   UNL     1      16.347 -13.552  -0.699  1.00  0.00    -0.267 OA
HETATM   12  C   UNL     1      14.230 -17.233  -0.722  1.00  0.00     0.001 A 
HETATM   13  C   UNL     1      13.972 -17.804  -1.952  1.00  0.00     0.002 A 
ENDBRANCH   1   2
BRANCH   1  14
HETATM   14  C   UNL     1      16.304 -11.192  -3.398  1.00  0.00     0.147 C 
HETATM   15  O   UNL     1      15.160 -11.090  -3.011  1.00  0.00    -0.296 OA
BRANCH  14  16
HETATM   16  C   UNL     1      16.938 -10.177  -4.316  1.00  0.00     0.115 C 
BRANCH  16  17
HETATM   17  C   UNL     1      16.265  -8.798  -4.326  1.00  0.00     0.221 C 
HETATM   18  N   UNL     1      14.905  -8.838  -4.884  1.00  0.00    -0.068 N 
HETATM   19  C   UNL     1      14.346  -7.489  -5.063  1.00  0.00     0.233 C 
ATOM     20  HN2 UNL     1      14.876  -9.370  -5.754  1.00  0.00     0.277 HD
ATOM     21  HN1 UNL     1      14.289  -9.422  -4.319  1.00  0.00     0.277 HD
HETATM   22  C   UNL     1      14.313  -6.688  -3.764  1.00  0.00     0.030 C 
HETATM   23  C   UNL     1      15.686  -6.702  -3.090  1.00  0.00     0.035 C 
HETATM   24  C   UNL     1      16.174  -8.134  -2.958  1.00  0.00     0.149 C 
BRANCH  24  25
HETATM   25  O   UNL     1      17.443  -8.182  -2.306  1.00  0.00    -0.393 OA
ATOM     26  HO  UNL     1      18.129  -7.923  -2.912  1.00  0.00     0.210 HD
ENDBRANCH  24  25
ENDBRANCH  16  17
ENDBRANCH  14  16
ENDBRANCH   1  14
TORSDOF 5
ENDMDL
MODEL 2
REMARK VINA RESULT:    -8.936      1.149      1.772
REMARK INTER + INTRA:         -11.801
REMARK INTER:                 -11.592
REMARK INTRA:                  -0.208
REMARK UNBOUND:                -0.513
REMARK  5 active torsions:
REMARK  status: ('A' for Active; 'I' for Inactive)
REMARK    1  A    between atoms: C_9  and  N_22 
REMARK    2  A    between atoms: C_9  and  C_11 
REMARK    3  A    between atoms: C_10  and  C_12 
REMARK    4  A    between atoms: C_11  and  C_12 
REMARK    5  A    between atoms: C_13  and  O_25 
ROOT
HETATM    1  C   UNL     1      17.083 -12.608  -2.934  1.00  0.00     0.211 C 
ENDROOT
BRANCH   1   2
HETATM    2  N   UNL     1      16.421 -13.778  -2.367  1.00  0.00    -0.303 N 
HETATM    3  C   UNL     1      16.434 -13.986  -1.014  1.00  0.00     0.187 A 
HETATM    4  N   UNL     1      15.881 -14.961  -0.390  1.00  0.00    -0.351 N 
HETATM    5  C   UNL     1      15.203 -15.895  -1.173  1.00  0.00     0.048 A 
ATOM      6  HN  UNL     1      15.935 -15.048   0.625  1.00  0.00     0.166 HD
HETATM    7  C   UNL     1      15.125 -15.782  -2.565  1.00  0.00     0.059 A 
HETATM    8  C   UNL     1      14.608 -16.988  -0.544  1.00  0.00     0.030 A 
HETATM    9  C   UNL     1      15.778 -14.653  -3.234  1.00  0.00     0.261 A 
HETATM   10  C   UNL     1      14.458 -16.751  -3.315  1.00  0.00     0.019 A 
HETATM   11  O   UNL     1      15.786 -14.473  -4.439  1.00  0.00    -0.267 OA
HETATM   12  C   UNL     1      13.881 -17.831  -2.673  1.00  0.00     0.001 A 
HETATM   13  C   UNL     1      13.957 -17.949  -1.299  1.00  0.00     0.002 A 
ENDBRANCH   1   2
BRANCH   1  14
HETATM   14  C   UNL     1      16.096 -11.516  -3.332  1.00  0.00     0.147 C 
HETATM   15  O   UNL     1      15.023 -11.388  -2.784  1.00  0.00    -0.296 OA
BRANCH  14  16
HETATM   16  C   UNL     1      16.534 -10.623  -4.467  1.00  0.00     0.115 C 
BRANCH  16  17
HETATM   17  C   UNL     1      16.097  -9.157  -4.347  1.00  0.00     0.221 C 
HETATM   18  N   UNL     1      14.695  -8.951  -4.741  1.00  0.00    -0.068 N 
HETATM   19  C   UNL     1      14.348  -7.523  -4.803  1.00  0.00     0.233 C 
ATOM     20  HN2 UNL     1      14.484  -9.423  -5.620  1.00  0.00     0.277 HD
ATOM     21  HN1 UNL     1      14.059  -9.461  -4.128  1.00  0.00     0.277 HD
HETATM   22  C   UNL     1      14.590  -6.800  -3.481  1.00  0.00     0.030 C 
HETATM   23  C   UNL     1      16.009  -7.067  -2.976  1.00  0.00     0.035 C 
HETATM   24  C   UNL     1      16.269  -8.563  -2.955  1.00  0.00     0.149 C 
BRANCH  24  25
HETATM   25  O   UNL     1      17.578  -8.846  -2.461  1.00  0.00    -0.393 OA
ATOM     26  HO  UNL     1      18.010  -9.473  -3.029  1.00  0.00     0.210 HD
ENDBRANCH  24  25
ENDBRANCH  16  17
ENDBRANCH  14  16
ENDBRANCH   1  14
TORSDOF 5
ENDMDL
MODEL 3
REMARK VINA RESULT:    -7.833      1.301      1.568
REMARK INTER + INTRA:         -10.406
REMARK INTER:                 -10.408
REMARK INTRA:                   0.002
REMARK UNBOUND:                -0.513
REMARK  5 active torsions:
REMARK  status: ('A' for Active; 'I' for Inactive)
REMARK    1  A    between atoms: C_9  and  N_22 
REMARK    2  A    between atoms: C_9  and  C_11 
REMARK    3  A    between atoms: C_10  and  C_12 
REMARK    4  A    between atoms: C_11  and  C_12 
REMARK    5  A    between atoms: C_13  and  O_25 
ROOT
HETATM    1  C   UNL     1      17.168 -12.502  -3.081  1.00  0.00     0.211 C 
ENDROOT
BRANCH   1   2
HETATM    2  N   UNL     1      16.430 -13.757  -2.991  1.00  0.00    -0.303 N 
HETATM    3  C   UNL     1      16.155 -14.475  -4.123  1.00  0.00     0.187 A 
HETATM    4  N   UNL     1      15.531 -15.594  -4.180  1.00  0.00    -0.351 N 
HETATM    5  C   UNL     1      15.092 -16.124  -2.966  1.00  0.00     0.048 A 
ATOM      6  HN  UNL     1      15.363 -16.071  -5.066  1.00  0.00     0.166 HD
HETATM    7  C   UNL     1      15.318 -15.475  -1.748  1.00  0.00     0.059 A 
HETATM    8  C   UNL     1      14.384 -17.326  -2.979  1.00  0.00     0.030 A 
HETATM    9  C   UNL     1      16.032 -14.196  -1.733  1.00  0.00     0.261 A 
HETATM   10  C   UNL     1      14.842 -16.026  -0.558  1.00  0.00     0.019 A 
HETATM   11  O   UNL     1      16.263 -13.542  -0.731  1.00  0.00    -0.267 OA
HETATM   12  C   UNL     1      14.135 -17.215  -0.592  1.00  0.00     0.001 A 
HETATM   13  C   UNL     1      13.908 -17.858  -1.792  1.00  0.00     0.002 A 
ENDBRANCH   1   2
BRANCH   1  14
HETATM   14  C   UNL     1      16.555 -11.536  -4.089  1.00  0.00     0.147 C 
HETATM   15  O   UNL     1      15.683 -11.878  -4.858  1.00  0.00    -0.296 OA
BRANCH  14  16
HETATM   16  C   UNL     1      17.122 -10.138  -4.082  1.00  0.00     0.115 C 
BRANCH  16  17
HETATM   17  C   UNL     1      16.220  -9.074  -3.443  1.00  0.00     0.221 C 
HETATM   18  N   UNL     1      16.944  -8.214  -2.494  1.00  0.00    -0.068 N 
HETATM   19  C   UNL     1      16.034  -7.328  -1.752  1.00  0.00     0.233 C 
ATOM     20  HN2 UNL     1      17.523  -8.767  -1.861  1.00  0.00     0.277 HD
ATOM     21  HN1 UNL     1      17.679  -7.684  -2.961  1.00  0.00     0.277 HD
HETATM   22  C   UNL     1      15.200  -6.439  -2.671  1.00  0.00     0.030 C 
HETATM   23  C   UNL     1      14.504  -7.279  -3.743  1.00  0.00     0.035 C 
HETATM   24  C   UNL     1      15.525  -8.158  -4.443  1.00  0.00     0.149 C 
BRANCH  24  25
HETATM   25  O   UNL     1      14.910  -8.935  -5.470  1.00  0.00    -0.393 OA
ATOM     26  HO  UNL     1      14.341  -8.385  -5.997  1.00  0.00     0.210 HD
ENDBRANCH  24  25
ENDBRANCH  16  17
ENDBRANCH  14  16
ENDBRANCH   1  14
TORSDOF 5
ENDMDL
MODEL 4
REMARK VINA RESULT:    -7.718      5.436      8.311
REMARK INTER + INTRA:         -10.261
REMARK INTER:                  -9.374
REMARK INTRA:                  -0.887
REMARK UNBOUND:                -0.513
REMARK  5 active torsions:
REMARK  status: ('A' for Active; 'I' for Inactive)
REMARK    1  A    between atoms: C_9  and  N_22 
REMARK    2  A    between atoms: C_9  and  C_11 
REMARK    3  A    between atoms: C_10  and  C_12 
REMARK    4  A    between atoms: C_11  and  C_12 
REMARK    5  A    between atoms: C_13  and  O_25 
ROOT
HETATM    1  C   UNL     1      13.949 -18.964  -5.909  1.00  0.00     0.211 C 
ENDROOT
BRANCH   1   2
HETATM    2  N   UNL     1      14.081 -18.367  -4.585  1.00  0.00    -0.303 N 
HETATM    3  C   UNL     1      13.648 -19.047  -3.479  1.00  0.00     0.187 A 
HETATM    4  N   UNL     1      13.719 -18.645  -2.263  1.00  0.00    -0.351 N 
HETATM    5  C   UNL     1      14.294 -17.391  -2.055  1.00  0.00     0.048 A 
ATOM      6  HN  UNL     1      13.373 -19.212  -1.488  1.00  0.00     0.166 HD
HETATM    7  C   UNL     1      14.771 -16.609  -3.113  1.00  0.00     0.059 A 
HETATM    8  C   UNL     1      14.369 -16.897  -0.754  1.00  0.00     0.030 A 
HETATM    9  C   UNL     1      14.664 -17.108  -4.486  1.00  0.00     0.261 A 
HETATM   10  C   UNL     1      15.317 -15.349  -2.866  1.00  0.00     0.019 A 
HETATM   11  O   UNL     1      15.030 -16.499  -5.476  1.00  0.00    -0.267 OA
HETATM   12  C   UNL     1      15.375 -14.873  -1.569  1.00  0.00     0.001 A 
HETATM   13  C   UNL     1      14.904 -15.641  -0.522  1.00  0.00     0.002 A 
ENDBRANCH   1   2
BRANCH   1  14
HETATM   14  C   UNL     1      15.009 -20.027  -6.178  1.00  0.00     0.147 C 
HETATM   15  O   UNL     1      14.943 -21.137  -5.694  1.00  0.00    -0.296 OA
BRANCH  14  16
HETATM   16  C   UNL     1      16.153 -19.599  -7.063  1.00  0.00     0.115 C 
BRANCH  16  17
HETATM   17  C   UNL     1      15.784 -18.599  -8.166  1.00  0.00     0.221 C 
HETATM   18  N   UNL     1      16.507 -17.325  -8.040  1.00  0.00    -0.068 N 
HETATM   19  C   UNL     1      16.007 -16.314  -8.984  1.00  0.00     0.233 C 
ATOM     20  HN2 UNL     1      16.485 -16.980  -7.080  1.00  0.00     0.277 HD
ATOM     21  HN1 UNL     1      17.513 -17.459  -8.138  1.00  0.00     0.277 HD
HETATM   22  C   UNL     1      16.089 -16.775 -10.437  1.00  0.00     0.030 C 
HETATM   23  C   UNL     1      15.437 -18.149 -10.602  1.00  0.00     0.035 C 
HETATM   24  C   UNL     1      16.016 -19.113  -9.582  1.00  0.00     0.149 C 
BRANCH  24  25
HETATM   25  O   UNL     1      15.446 -20.413  -9.729  1.00  0.00    -0.393 OA
ATOM     26  HO  UNL     1      15.257 -20.583 -10.644  1.00  0.00     0.210 HD
ENDBRANCH  24  25
ENDBRANCH  16  17
ENDBRANCH  14  16
ENDBRANCH   1  14
TORSDOF 5
ENDMDL
MODEL 5
REMARK VINA RESULT:    -7.680      5.478      7.730
REMARK INTER + INTRA:         -10.213
REMARK INTER:                  -9.039
REMARK INTRA:                  -1.174
REMARK UNBOUND:                -0.513
REMARK  5 active torsions:
REMARK  status: ('A' for Active; 'I' for Inactive)
REMARK    1  A    between atoms: C_9  and  N_22 
REMARK    2  A    between atoms: C_9  and  C_11 
REMARK    3  A    between atoms: C_10  and  C_12 
REMARK    4  A    between atoms: C_11  and  C_12 
REMARK    5  A    between atoms: C_13  and  O_25 
ROOT
HETATM    1  C   UNL     1      14.347 -18.250  -6.375  1.00  0.00     0.211 C 
ENDROOT
BRANCH   1   2
HETATM    2  N   UNL     1      14.300 -17.997  -4.940  1.00  0.00    -0.303 N 
HETATM    3  C   UNL     1      13.822 -18.956  -4.088  1.00  0.00     0.187 A 
HETATM    4  N   UNL     1      13.742 -18.867  -2.811  1.00  0.00    -0.351 N 
HETATM    5  C   UNL     1      14.185 -17.673  -2.242  1.00  0.00     0.048 A 
ATOM      6  HN  UNL     1      13.373 -19.629  -2.242  1.00  0.00     0.166 HD
HETATM    7  C   UNL     1      14.692 -16.625  -3.017  1.00  0.00     0.059 A 
HETATM    8  C   UNL     1      14.092 -17.517  -0.859  1.00  0.00     0.030 A 
HETATM    9  C   UNL     1      14.760 -16.771  -4.473  1.00  0.00     0.261 A 
HETATM   10  C   UNL     1      15.102 -15.436  -2.412  1.00  0.00     0.019 A 
HETATM   11  O   UNL     1      15.166 -15.913  -5.238  1.00  0.00    -0.267 OA
HETATM   12  C   UNL     1      14.995 -15.298  -1.040  1.00  0.00     0.001 A 
HETATM   13  C   UNL     1      14.493 -16.329  -0.271  1.00  0.00     0.002 A 
ENDBRANCH   1   2
BRANCH   1  14
HETATM   14  C   UNL     1      15.320 -19.366  -6.739  1.00  0.00     0.147 C 
HETATM   15  O   UNL     1      14.943 -20.425  -7.195  1.00  0.00    -0.296 OA
BRANCH  14  16
HETATM   16  C   UNL     1      16.776 -19.075  -6.472  1.00  0.00     0.115 C 
BRANCH  16  17
HETATM   17  C   UNL     1      17.531 -18.413  -7.632  1.00  0.00     0.221 C 
HETATM   18  N   UNL     1      17.010 -18.814  -8.948  1.00  0.00    -0.068 N 
HETATM   19  C   UNL     1      17.858 -18.326 -10.046  1.00  0.00     0.233 C 
ATOM     20  HN2 UNL     1      16.878 -19.825  -9.002  1.00  0.00     0.277 HD
ATOM     21  HN1 UNL     1      16.041 -18.520  -9.068  1.00  0.00     0.277 HD
HETATM   22  C   UNL     1      18.021 -16.808 -10.032  1.00  0.00     0.030 C 
HETATM   23  C   UNL     1      18.466 -16.329  -8.650  1.00  0.00     0.035 C 
HETATM   24  C   UNL     1      17.533 -16.890  -7.592  1.00  0.00     0.149 C 
BRANCH  24  25
HETATM   25  O   UNL     1      17.907 -16.437  -6.290  1.00  0.00    -0.393 OA
ATOM     26  HO  UNL     1      17.829 -15.491  -6.241  1.00  0.00     0.210 HD
ENDBRANCH  24  25
ENDBRANCH  16  17
ENDBRANCH  14  16
ENDBRANCH   1  14
TORSDOF 5
ENDMDL
MODEL 6
REMARK VINA RESULT:    -7.383      5.858      8.014
REMARK INTER + INTRA:          -9.838
REMARK INTER:                  -8.943
REMARK INTRA:                  -0.895
REMARK UNBOUND:                -0.513
REMARK  5 active torsions:
REMARK  status: ('A' for Active; 'I' for Inactive)
REMARK    1  A    between atoms: C_9  and  N_22 
REMARK    2  A    between atoms: C_9  and  C_11 
REMARK    3  A    between atoms: C_10  and  C_12 
REMARK    4  A    between atoms: C_11  and  C_12 
REMARK    5  A    between atoms: C_13  and  O_25 
ROOT
HETATM    1  C   UNL     1      14.343 -18.985  -6.308  1.00  0.00     0.211 C 
ENDROOT
BRANCH   1   2
HETATM    2  N   UNL     1      14.499 -18.093  -5.164  1.00  0.00    -0.303 N 
HETATM    3  C   UNL     1      15.008 -16.834  -5.340  1.00  0.00     0.187 A 
HETATM    4  N   UNL     1      15.181 -15.951  -4.426  1.00  0.00    -0.351 N 
HETATM    5  C   UNL     1      14.813 -16.315  -3.131  1.00  0.00     0.048 A 
ATOM      6  HN  UNL     1      15.568 -15.030  -4.636  1.00  0.00     0.166 HD
HETATM    7  C   UNL     1      14.282 -17.575  -2.837  1.00  0.00     0.059 A 
HETATM    8  C   UNL     1      15.007 -15.398  -2.098  1.00  0.00     0.030 A 
HETATM    9  C   UNL     1      14.107 -18.554  -3.913  1.00  0.00     0.261 A 
HETATM   10  C   UNL     1      13.949 -17.910  -1.524  1.00  0.00     0.019 A 
HETATM   11  O   UNL     1      13.673 -19.682  -3.760  1.00  0.00    -0.267 OA
HETATM   12  C   UNL     1      14.157 -16.990  -0.512  1.00  0.00     0.001 A 
HETATM   13  C   UNL     1      14.683 -15.745  -0.797  1.00  0.00     0.002 A 
ENDBRANCH   1   2
BRANCH   1  14
HETATM   14  C   UNL     1      15.672 -19.565  -6.780  1.00  0.00     0.147 C 
HETATM   15  O   UNL     1      16.422 -20.150  -6.028  1.00  0.00    -0.296 OA
BRANCH  14  16
HETATM   16  C   UNL     1      16.001 -19.341  -8.235  1.00  0.00     0.115 C 
BRANCH  16  17
HETATM   17  C   UNL     1      16.808 -18.069  -8.531  1.00  0.00     0.221 C 
HETATM   18  N   UNL     1      17.738 -17.724  -7.446  1.00  0.00    -0.068 N 
HETATM   19  C   UNL     1      18.362 -16.408  -7.656  1.00  0.00     0.233 C 
ATOM     20  HN2 UNL     1      17.281 -17.776  -6.535  1.00  0.00     0.277 HD
ATOM     21  HN1 UNL     1      18.441 -18.451  -7.315  1.00  0.00     0.277 HD
HETATM   22  C   UNL     1      19.112 -16.319  -8.983  1.00  0.00     0.030 C 
HETATM   23  C   UNL     1      18.214 -16.767 -10.138  1.00  0.00     0.035 C 
HETATM   24  C   UNL     1      17.618 -18.126  -9.821  1.00  0.00     0.149 C 
BRANCH  24  25
HETATM   25  O   UNL     1      16.796 -18.585 -10.894  1.00  0.00    -0.393 OA
ATOM     26  HO  UNL     1      15.914 -18.243 -10.796  1.00  0.00     0.210 HD
ENDBRANCH  24  25
ENDBRANCH  16  17
ENDBRANCH  14  16
ENDBRANCH   1  14
TORSDOF 5
ENDMDL
MODEL 7
REMARK VINA RESULT:    -7.322      5.166      9.793
REMARK INTER + INTRA:          -9.762
REMARK INTER:                  -8.851
REMARK INTRA:                  -0.911
REMARK UNBOUND:                -0.513
REMARK  5 active torsions:
REMARK  status: ('A' for Active; 'I' for Inactive)
REMARK    1  A    between atoms: C_9  and  N_22 
REMARK    2  A    between atoms: C_9  and  C_11 
REMARK    3  A    between atoms: C_10  and  C_12 
REMARK    4  A    between atoms: C_11  and  C_12 
REMARK    5  A    between atoms: C_13  and  O_25 
ROOT
HETATM    1  C   UNL     1      13.450 -19.363  -4.712  1.00  0.00     0.211 C 
ENDROOT
BRANCH   1   2
HETATM    2  N   UNL     1      13.941 -18.281  -3.866  1.00  0.00    -0.303 N 
HETATM    3  C   UNL     1      13.748 -18.326  -2.511  1.00  0.00     0.187 A 
HETATM    4  N   UNL     1      14.140 -17.452  -1.658  1.00  0.00    -0.351 N 
HETATM    5  C   UNL     1      14.830 -16.352  -2.167  1.00  0.00     0.048 A 
ATOM      6  HN  UNL     1      13.957 -17.557  -0.660  1.00  0.00     0.166 HD
HETATM    7  C   UNL     1      15.083 -16.203  -3.535  1.00  0.00     0.059 A 
HETATM    8  C   UNL     1      15.253 -15.361  -1.282  1.00  0.00     0.030 A 
HETATM    9  C   UNL     1      14.611 -17.225  -4.472  1.00  0.00     0.261 A 
HETATM   10  C   UNL     1      15.755 -15.075  -4.007  1.00  0.00     0.019 A 
HETATM   11  O   UNL     1      14.764 -17.181  -5.680  1.00  0.00    -0.267 OA
HETATM   12  C   UNL     1      16.160 -14.099  -3.115  1.00  0.00     0.001 A 
HETATM   13  C   UNL     1      15.910 -14.241  -1.764  1.00  0.00     0.002 A 
ENDBRANCH   1   2
BRANCH   1  14
HETATM   14  C   UNL     1      14.300 -20.624  -4.597  1.00  0.00     0.147 C 
HETATM   15  O   UNL     1      13.861 -21.656  -4.137  1.00  0.00    -0.296 OA
BRANCH  14  16
HETATM   16  C   UNL     1      15.727 -20.495  -5.070  1.00  0.00     0.115 C 
BRANCH  16  17
HETATM   17  C   UNL     1      16.082 -21.333  -6.305  1.00  0.00     0.221 C 
HETATM   18  N   UNL     1      16.024 -22.779  -6.042  1.00  0.00    -0.068 N 
HETATM   19  C   UNL     1      16.548 -23.563  -7.172  1.00  0.00     0.233 C 
ATOM     20  HN2 UNL     1      16.501 -23.017  -5.173  1.00  0.00     0.277 HD
ATOM     21  HN1 UNL     1      15.080 -23.073  -5.793  1.00  0.00     0.277 HD
HETATM   22  C   UNL     1      15.810 -23.277  -8.478  1.00  0.00     0.030 C 
HETATM   23  C   UNL     1      15.754 -21.772  -8.745  1.00  0.00     0.035 C 
HETATM   24  C   UNL     1      15.207 -21.058  -7.522  1.00  0.00     0.149 C 
BRANCH  24  25
HETATM   25  O   UNL     1      15.117 -19.652  -7.751  1.00  0.00    -0.393 OA
ATOM     26  HO  UNL     1      15.909 -19.222  -7.447  1.00  0.00     0.210 HD
ENDBRANCH  24  25
ENDBRANCH  16  17
ENDBRANCH  14  16
ENDBRANCH   1  14
TORSDOF 5
ENDMDL
MODEL 8
REMARK VINA RESULT:    -7.222      4.776      7.828
REMARK INTER + INTRA:          -9.635
REMARK INTER:                  -8.712
REMARK INTRA:                  -0.923
REMARK UNBOUND:                -0.513
REMARK  5 active torsions:
REMARK  status: ('A' for Active; 'I' for Inactive)
REMARK    1  A    between atoms: C_9  and  N_22 
REMARK    2  A    between atoms: C_9  and  C_11 
REMARK    3  A    between atoms: C_10  and  C_12 
REMARK    4  A    between atoms: C_11  and  C_12 
REMARK    5  A    between atoms: C_13  and  O_25 
ROOT
HETATM    1  C   UNL     1      15.738 -15.278  -6.374  1.00  0.00     0.211 C 
ENDROOT
BRANCH   1   2
HETATM    2  N   UNL     1      15.267 -15.933  -5.158  1.00  0.00    -0.303 N 
HETATM    3  C   UNL     1      14.593 -17.122  -5.235  1.00  0.00     0.187 A 
HETATM    4  N   UNL     1      14.142 -17.805  -4.248  1.00  0.00    -0.351 N 
HETATM    5  C   UNL     1      14.363 -17.279  -2.975  1.00  0.00     0.048 A 
ATOM      6  HN  UNL     1      13.647 -18.687  -4.386  1.00  0.00     0.166 HD
HETATM    7  C   UNL     1      15.040 -16.071  -2.779  1.00  0.00     0.059 A 
HETATM    8  C   UNL     1      13.867 -17.971  -1.871  1.00  0.00     0.030 A 
HETATM    9  C   UNL     1      15.534 -15.323  -3.938  1.00  0.00     0.261 A 
HETATM   10  C   UNL     1      15.219 -15.565  -1.491  1.00  0.00     0.019 A 
HETATM   11  O   UNL     1      16.117 -14.255  -3.877  1.00  0.00    -0.267 OA
HETATM   12  C   UNL     1      14.713 -16.262  -0.408  1.00  0.00     0.001 A 
HETATM   13  C   UNL     1      14.042 -17.454  -0.597  1.00  0.00     0.002 A 
ENDBRANCH   1   2
BRANCH   1  14
HETATM   14  C   UNL     1      16.891 -16.029  -7.031  1.00  0.00     0.147 C 
HETATM   15  O   UNL     1      17.863 -16.391  -6.403  1.00  0.00    -0.296 OA
BRANCH  14  16
HETATM   16  C   UNL     1      16.754 -16.267  -8.514  1.00  0.00     0.115 C 
BRANCH  16  17
HETATM   17  C   UNL     1      17.001 -17.711  -8.967  1.00  0.00     0.221 C 
HETATM   18  N   UNL     1      18.353 -18.185  -8.635  1.00  0.00    -0.068 N 
HETATM   19  C   UNL     1      18.638 -19.496  -9.239  1.00  0.00     0.233 C 
ATOM     20  HN2 UNL     1      19.060 -17.496  -8.892  1.00  0.00     0.277 HD
ATOM     21  HN1 UNL     1      18.503 -18.202  -7.627  1.00  0.00     0.277 HD
HETATM   22  C   UNL     1      17.634 -20.567  -8.822  1.00  0.00     0.030 C 
HETATM   23  C   UNL     1      16.203 -20.081  -9.054  1.00  0.00     0.035 C 
HETATM   24  C   UNL     1      16.014 -18.724  -8.399  1.00  0.00     0.149 C 
BRANCH  24  25
HETATM   25  O   UNL     1      14.677 -18.255  -8.574  1.00  0.00    -0.393 OA
ATOM     26  HO  UNL     1      14.529 -18.030  -9.486  1.00  0.00     0.210 HD
ENDBRANCH  24  25
ENDBRANCH  16  17
ENDBRANCH  14  16
ENDBRANCH   1  14
TORSDOF 5
ENDMDL
MODEL 9
REMARK VINA RESULT:    -7.191      8.577     10.646
REMARK INTER + INTRA:          -9.596
REMARK INTER:                  -8.592
REMARK INTRA:                  -1.004
REMARK UNBOUND:                -0.513
REMARK  5 active torsions:
REMARK  status: ('A' for Active; 'I' for Inactive)
REMARK    1  A    between atoms: C_9  and  N_22 
REMARK    2  A    between atoms: C_9  and  C_11 
REMARK    3  A    between atoms: C_10  and  C_12 
REMARK    4  A    between atoms: C_11  and  C_12 
REMARK    5  A    between atoms: C_13  and  O_25 
ROOT
HETATM    1  C   UNL     1      20.962 -13.801   3.795  1.00  0.00     0.211 C 
ENDROOT
BRANCH   1   2
HETATM    2  N   UNL     1      21.331 -12.736   2.869  1.00  0.00    -0.303 N 
HETATM    3  C   UNL     1      22.614 -12.648   2.399  1.00  0.00     0.187 A 
HETATM    4  N   UNL     1      23.063 -11.775   1.574  1.00  0.00    -0.351 N 
HETATM    5  C   UNL     1      22.150 -10.825   1.116  1.00  0.00     0.048 A 
ATOM      6  HN  UNL     1      24.037 -11.775   1.269  1.00  0.00     0.166 HD
HETATM    7  C   UNL     1      20.814 -10.819   1.531  1.00  0.00     0.059 A 
HETATM    8  C   UNL     1      22.597  -9.837   0.239  1.00  0.00     0.030 A 
HETATM    9  C   UNL     1      20.348 -11.834   2.479  1.00  0.00     0.261 A 
HETATM   10  C   UNL     1      19.938  -9.836   1.069  1.00  0.00     0.019 A 
HETATM   11  O   UNL     1      19.213 -11.905   2.916  1.00  0.00    -0.267 OA
HETATM   12  C   UNL     1      20.402  -8.860   0.206  1.00  0.00     0.001 A 
HETATM   13  C   UNL     1      21.721  -8.861  -0.205  1.00  0.00     0.002 A 
ENDBRANCH   1   2
BRANCH   1  14
HETATM   14  C   UNL     1      21.517 -13.573   5.197  1.00  0.00     0.147 C 
HETATM   15  O   UNL     1      22.513 -14.138   5.594  1.00  0.00    -0.296 OA
BRANCH  14  16
HETATM   16  C   UNL     1      20.732 -12.619   6.063  1.00  0.00     0.115 C 
BRANCH  16  17
HETATM   17  C   UNL     1      21.540 -11.451   6.643  1.00  0.00     0.221 C 
HETATM   18  N   UNL     1      22.590 -10.980   5.727  1.00  0.00    -0.068 N 
HETATM   19  C   UNL     1      23.475  -9.994   6.368  1.00  0.00     0.233 C 
ATOM     20  HN2 UNL     1      23.122 -11.760   5.341  1.00  0.00     0.277 HD
ATOM     21  HN1 UNL     1      22.192 -10.614   4.863  1.00  0.00     0.277 HD
HETATM   22  C   UNL     1      22.716  -8.781   6.899  1.00  0.00     0.030 C 
HETATM   23  C   UNL     1      21.546  -9.223   7.780  1.00  0.00     0.035 C 
HETATM   24  C   UNL     1      20.702 -10.240   7.032  1.00  0.00     0.149 C 
BRANCH  24  25
HETATM   25  O   UNL     1      19.585 -10.652   7.819  1.00  0.00    -0.393 OA
ATOM     26  HO  UNL     1      19.221 -11.458   7.470  1.00  0.00     0.210 HD
ENDBRANCH  24  25
ENDBRANCH  16  17
ENDBRANCH  14  16
ENDBRANCH   1  14
TORSDOF 5
ENDMDL
