MODEL 1
REMARK VINA RESULT:    -8.094      0.000      0.000
REMARK INTER + INTRA:         -11.263
REMARK INTER:                 -10.696
REMARK INTRA:                  -0.567
REMARK UNBOUND:                -0.567
REMARK  6 active torsions:
REMARK  status: ('A' for Active; 'I' for Inactive)
REMARK    1  A    between atoms: C_3  and  N_4 
REMARK    2  A    between atoms: N_12  and  C_29 
REMARK    3  A    between atoms: C_13  and  C_18 
REMARK    4  A    between atoms: C_18  and  N_19 
REMARK    5  A    between atoms: N_19  and  C_24 
REMARK    6  A    between atoms: C_21  and  C_27 
ROOT
HETATM    1  N   UNK A   0      27.104   5.411   6.360  1.00  0.00    -0.175 N 
ATOM      2  HN  UNK A   0      26.938   5.230   5.370  1.00  0.00     0.186 HD
HETATM    3  C   UNK A   0      28.327   5.391   6.843  1.00  0.00     0.680 A 
HETATM    4  N   UNK A   0      28.589   5.748   8.147  1.00  0.00    -0.154 N 
ATOM      5  HN  UNK A   0      29.560   5.827   8.447  1.00  0.00     0.187 HD
HETATM    6  C   UNK A   0      27.594   6.002   9.063  1.00  0.00     0.290 A 
HETATM    7  O   UNK A   0      27.936   6.358  10.219  1.00  0.00    -0.265 OA
HETATM    8  C   UNK A   0      26.288   5.912   8.584  1.00  0.00     0.151 A 
HETATM    9  N   UNK A   0      25.113   6.107   9.371  1.00  0.00    -0.309 N 
HETATM   10  C   UNK A   0      23.964   6.772   8.720  1.00  0.00     0.128 C 
HETATM   11  C   UNK A   0      23.630   6.007   7.443  1.00  0.00     0.148 C 
HETATM   12  N   UNK A   0      24.829   5.680   6.683  1.00  0.00    -0.372 N 
ATOM     13  HN  UNK A   0      24.717   5.438   5.698  1.00  0.00     0.161 HD
HETATM   14  C   UNK A   0      26.070   5.674   7.191  1.00  0.00     0.149 A 
ENDROOT
BRANCH  10  15
HETATM   15  C   UNK A   0      24.274   8.238   8.457  1.00  0.00     0.147 C 
BRANCH  15  16
HETATM   16  N   UNK A   0      24.737   8.886   9.680  1.00  0.00    -0.388 N 
ATOM     17  HN  UNK A   0      25.126   8.294  10.415  1.00  0.00     0.159 HD
BRANCH  16  18
HETATM   18  C   UNK A   0      24.683  10.255   9.911  1.00  0.00     0.028 A 
HETATM   19  C   UNK A   0      24.859  10.702  11.220  1.00  0.00     0.030 A 
HETATM   20  C   UNK A   0      24.783  12.042  11.496  1.00  0.00     0.017 A 
HETATM   21  C   UNK A   0      24.584  12.964  10.472  1.00  0.00     0.002 A 
HETATM   22  C   UNK A   0      24.451  12.512   9.168  1.00  0.00     0.017 A 
HETATM   23  C   UNK A   0      24.494  11.169   8.882  1.00  0.00     0.030 A 
BRANCH  21  24
HETATM   24  C   UNK A   0      24.552  14.447  10.730  1.00  0.00     0.269 C 
HETATM   25  O   UNK A   0      23.525  14.967  11.147  1.00  0.00    -0.301 OA
ENDBRANCH  21  24
ENDBRANCH  16  18
ENDBRANCH  15  16
ENDBRANCH  10  15
BRANCH   9  26
HETATM   26  C   UNK A   0      24.945   5.426  10.527  1.00  0.00     0.356 C 
HETATM   27  O   UNK A   0      24.959   4.175  10.564  1.00  0.00    -0.283 OA
ENDBRANCH   9  26
BRANCH   3  28
HETATM   28  N   UNK A   0      29.388   5.150   6.056  1.00  0.00    -0.234 N 
ATOM     29  HN2 UNK A   0      29.987   5.906   5.724  1.00  0.00     0.174 HD
ATOM     30  HN1 UNK A   0      29.624   4.172   5.887  1.00  0.00     0.174 HD
ENDBRANCH   3  28
TORSDOF 6
ENDMDL
MODEL 2
REMARK VINA RESULT:    -7.663      1.645      2.017
REMARK INTER + INTRA:         -10.694
REMARK INTER:                 -10.238
REMARK INTRA:                  -0.455
REMARK UNBOUND:                -0.567
REMARK  6 active torsions:
REMARK  status: ('A' for Active; 'I' for Inactive)
REMARK    1  A    between atoms: C_3  and  N_4 
REMARK    2  A    between atoms: N_12  and  C_29 
REMARK    3  A    between atoms: C_13  and  C_18 
REMARK    4  A    between atoms: C_18  and  N_19 
REMARK    5  A    between atoms: N_19  and  C_24 
REMARK    6  A    between atoms: C_21  and  C_27 
ROOT
HETATM    1  N   UNK A   0      27.138   5.478   6.346  1.00  0.00    -0.175 N 
ATOM      2  HN  UNK A   0      26.929   5.299   5.364  1.00  0.00     0.186 HD
HETATM    3  C   UNK A   0      28.376   5.417   6.785  1.00  0.00     0.680 A 
HETATM    4  N   UNK A   0      28.697   5.770   8.076  1.00  0.00    -0.154 N 
ATOM      5  HN  UNK A   0      29.681   5.816   8.340  1.00  0.00     0.187 HD
HETATM    6  C   UNK A   0      27.746   6.063   9.026  1.00  0.00     0.290 A 
HETATM    7  O   UNK A   0      28.143   6.411  10.167  1.00  0.00    -0.265 OA
HETATM    8  C   UNK A   0      26.421   6.018   8.595  1.00  0.00     0.151 A 
HETATM    9  N   UNK A   0      25.284   6.258   9.424  1.00  0.00    -0.309 N 
HETATM   10  C   UNK A   0      24.135   6.959   8.811  1.00  0.00     0.128 C 
HETATM   11  C   UNK A   0      23.729   6.202   7.552  1.00  0.00     0.148 C 
HETATM   12  N   UNK A   0      24.886   5.829   6.750  1.00  0.00    -0.372 N 
ATOM     13  HN  UNK A   0      24.730   5.587   5.771  1.00  0.00     0.161 HD
HETATM   14  C   UNK A   0      26.144   5.782   7.212  1.00  0.00     0.149 A 
ENDROOT
BRANCH  10  15
HETATM   15  C   UNK A   0      24.487   8.413   8.528  1.00  0.00     0.147 C 
BRANCH  15  16
HETATM   16  N   UNK A   0      25.600   8.838   9.372  1.00  0.00    -0.388 N 
ATOM     17  HN  UNK A   0      26.547   8.670   9.033  1.00  0.00     0.159 HD
BRANCH  16  18
HETATM   18  C   UNK A   0      25.454   9.457  10.608  1.00  0.00     0.028 A 
HETATM   19  C   UNK A   0      26.370   9.136  11.609  1.00  0.00     0.030 A 
HETATM   20  C   UNK A   0      26.245   9.701  12.851  1.00  0.00     0.017 A 
HETATM   21  C   UNK A   0      25.242  10.632  13.106  1.00  0.00     0.002 A 
HETATM   22  C   UNK A   0      24.361  10.975  12.091  1.00  0.00     0.017 A 
HETATM   23  C   UNK A   0      24.457  10.393  10.850  1.00  0.00     0.030 A 
BRANCH  21  24
HETATM   24  C   UNK A   0      25.108  11.316  14.440  1.00  0.00     0.269 C 
HETATM   25  O   UNK A   0      24.018  11.351  14.995  1.00  0.00    -0.301 OA
ENDBRANCH  21  24
ENDBRANCH  16  18
ENDBRANCH  15  16
ENDBRANCH  10  15
BRANCH   9  26
HETATM   26  C   UNK A   0      25.134   5.588  10.589  1.00  0.00     0.356 C 
HETATM   27  O   UNK A   0      25.046   4.340  10.626  1.00  0.00    -0.283 OA
ENDBRANCH   9  26
BRANCH   3  28
HETATM   28  N   UNK A   0      29.398   5.135   5.961  1.00  0.00    -0.234 N 
ATOM     29  HN2 UNK A   0      29.809   5.849   5.360  1.00  0.00     0.174 HD
ATOM     30  HN1 UNK A   0      29.807   4.203   6.036  1.00  0.00     0.174 HD
ENDBRANCH   3  28
TORSDOF 6
ENDMDL
MODEL 3
REMARK VINA RESULT:    -7.486      3.336      6.211
REMARK INTER + INTRA:         -10.460
REMARK INTER:                  -9.826
REMARK INTRA:                  -0.634
REMARK UNBOUND:                -0.567
REMARK  6 active torsions:
REMARK  status: ('A' for Active; 'I' for Inactive)
REMARK    1  A    between atoms: C_3  and  N_4 
REMARK    2  A    between atoms: N_12  and  C_29 
REMARK    3  A    between atoms: C_13  and  C_18 
REMARK    4  A    between atoms: C_18  and  N_19 
REMARK    5  A    between atoms: N_19  and  C_24 
REMARK    6  A    between atoms: C_21  and  C_27 
ROOT
HETATM    1  N   UNK A   0      28.673   6.517   7.465  1.00  0.00    -0.175 N 
ATOM      2  HN  UNK A   0      29.610   6.910   7.555  1.00  0.00     0.186 HD
HETATM    3  C   UNK A   0      28.434   5.564   6.592  1.00  0.00     0.680 A 
HETATM    4  N   UNK A   0      27.209   4.937   6.533  1.00  0.00    -0.154 N 
ATOM      5  HN  UNK A   0      27.103   4.129   5.920  1.00  0.00     0.187 HD
HETATM    6  C   UNK A   0      26.123   5.355   7.266  1.00  0.00     0.290 A 
HETATM    7  O   UNK A   0      25.059   4.692   7.172  1.00  0.00    -0.265 OA
HETATM    8  C   UNK A   0      26.342   6.442   8.112  1.00  0.00     0.151 A 
HETATM    9  N   UNK A   0      25.346   7.050   8.935  1.00  0.00    -0.309 N 
HETATM   10  C   UNK A   0      25.774   7.546  10.261  1.00  0.00     0.128 C 
HETATM   11  C   UNK A   0      26.952   8.493  10.059  1.00  0.00     0.148 C 
HETATM   12  N   UNK A   0      27.924   7.952   9.118  1.00  0.00    -0.372 N 
ATOM     13  HN  UNK A   0      28.865   8.345   9.127  1.00  0.00     0.161 HD
HETATM   14  C   UNK A   0      27.664   6.971   8.241  1.00  0.00     0.149 A 
ENDROOT
BRANCH  10  15
HETATM   15  C   UNK A   0      26.112   6.384  11.182  1.00  0.00     0.147 C 
BRANCH  15  16
HETATM   16  N   UNK A   0      27.121   6.787  12.158  1.00  0.00    -0.388 N 
ATOM     17  HN  UNK A   0      26.842   7.441  12.889  1.00  0.00     0.159 HD
BRANCH  16  18
HETATM   18  C   UNK A   0      28.437   6.338  12.156  1.00  0.00     0.028 A 
HETATM   19  C   UNK A   0      28.766   5.291  11.298  1.00  0.00     0.030 A 
HETATM   20  C   UNK A   0      30.045   4.799  11.286  1.00  0.00     0.017 A 
HETATM   21  C   UNK A   0      31.029   5.371  12.087  1.00  0.00     0.002 A 
HETATM   22  C   UNK A   0      30.700   6.440  12.907  1.00  0.00     0.017 A 
HETATM   23  C   UNK A   0      29.415   6.923  12.950  1.00  0.00     0.030 A 
BRANCH  21  24
HETATM   24  C   UNK A   0      32.457   4.895  12.059  1.00  0.00     0.269 C 
HETATM   25  O   UNK A   0      32.694   3.695  12.033  1.00  0.00    -0.301 OA
ENDBRANCH  21  24
ENDBRANCH  16  18
ENDBRANCH  15  16
ENDBRANCH  10  15
BRANCH   9  26
HETATM   26  C   UNK A   0      24.170   7.450   8.401  1.00  0.00     0.356 C 
HETATM   27  O   UNK A   0      23.075   6.989   8.795  1.00  0.00    -0.283 OA
ENDBRANCH   9  26
BRANCH   3  28
HETATM   28  N   UNK A   0      29.407   5.070   5.809  1.00  0.00    -0.234 N 
ATOM     29  HN2 UNK A   0      30.383   5.079   6.104  1.00  0.00     0.174 HD
ATOM     30  HN1 UNK A   0      29.114   4.597   4.953  1.00  0.00     0.174 HD
ENDBRANCH   3  28
TORSDOF 6
ENDMDL
MODEL 4
REMARK VINA RESULT:    -7.341     10.229     11.323
REMARK INTER + INTRA:         -10.269
REMARK INTER:                  -9.845
REMARK INTRA:                  -0.423
REMARK UNBOUND:                -0.567
REMARK  6 active torsions:
REMARK  status: ('A' for Active; 'I' for Inactive)
REMARK    1  A    between atoms: C_3  and  N_4 
REMARK    2  A    between atoms: N_12  and  C_29 
REMARK    3  A    between atoms: C_13  and  C_18 
REMARK    4  A    between atoms: C_18  and  N_19 
REMARK    5  A    between atoms: N_19  and  C_24 
REMARK    6  A    between atoms: C_21  and  C_27 
ROOT
HETATM    1  N   UNK A   0      32.415   4.527   4.237  1.00  0.00    -0.175 N 
ATOM      2  HN  UNK A   0      31.740   4.580   5.000  1.00  0.00     0.186 HD
HETATM    3  C   UNK A   0      32.158   3.802   3.171  1.00  0.00     0.680 A 
HETATM    4  N   UNK A   0      32.998   3.808   2.080  1.00  0.00    -0.154 N 
ATOM      5  HN  UNK A   0      32.703   3.321   1.234  1.00  0.00     0.187 HD
HETATM    6  C   UNK A   0      34.218   4.444   2.084  1.00  0.00     0.290 A 
HETATM    7  O   UNK A   0      34.894   4.424   1.025  1.00  0.00    -0.265 OA
HETATM    8  C   UNK A   0      34.548   5.122   3.257  1.00  0.00     0.151 A 
HETATM    9  N   UNK A   0      35.773   5.819   3.481  1.00  0.00    -0.309 N 
HETATM   10  C   UNK A   0      35.708   7.065   4.275  1.00  0.00     0.128 C 
HETATM   11  C   UNK A   0      35.021   6.751   5.600  1.00  0.00     0.148 C 
HETATM   12  N   UNK A   0      33.835   5.927   5.411  1.00  0.00    -0.372 N 
ATOM     13  HN  UNK A   0      33.149   5.900   6.165  1.00  0.00     0.161 HD
HETATM   14  C   UNK A   0      33.585   5.201   4.311  1.00  0.00     0.149 A 
ENDROOT
BRANCH  10  15
HETATM   15  C   UNK A   0      34.995   8.159   3.494  1.00  0.00     0.147 C 
BRANCH  15  16
HETATM   16  N   UNK A   0      35.890   9.291   3.275  1.00  0.00    -0.388 N 
ATOM     17  HN  UNK A   0      36.433   9.309   2.411  1.00  0.00     0.159 HD
BRANCH  16  18
HETATM   18  C   UNK A   0      36.054  10.345   4.166  1.00  0.00     0.028 A 
HETATM   19  C   UNK A   0      35.584  11.600   3.782  1.00  0.00     0.030 A 
HETATM   20  C   UNK A   0      35.752  12.673   4.617  1.00  0.00     0.017 A 
HETATM   21  C   UNK A   0      36.340  12.508   5.868  1.00  0.00     0.002 A 
HETATM   22  C   UNK A   0      36.766  11.247   6.257  1.00  0.00     0.017 A 
HETATM   23  C   UNK A   0      36.632  10.170   5.416  1.00  0.00     0.030 A 
BRANCH  21  24
HETATM   24  C   UNK A   0      36.489  13.652   6.837  1.00  0.00     0.269 C 
HETATM   25  O   UNK A   0      36.122  14.773   6.509  1.00  0.00    -0.301 OA
ENDBRANCH  21  24
ENDBRANCH  16  18
ENDBRANCH  15  16
ENDBRANCH  10  15
BRANCH   9  26
HETATM   26  C   UNK A   0      36.958   5.202   3.271  1.00  0.00     0.356 C 
HETATM   27  O   UNK A   0      37.217   4.083   3.767  1.00  0.00    -0.283 OA
ENDBRANCH   9  26
BRANCH   3  28
HETATM   28  N   UNK A   0      31.004   3.126   3.045  1.00  0.00    -0.234 N 
ATOM     29  HN2 UNK A   0      30.398   3.256   2.235  1.00  0.00     0.174 HD
ATOM     30  HN1 UNK A   0      30.812   2.408   3.744  1.00  0.00     0.174 HD
ENDBRANCH   3  28
TORSDOF 6
ENDMDL
MODEL 5
REMARK VINA RESULT:    -7.308      3.774      5.555
REMARK INTER + INTRA:         -10.225
REMARK INTER:                  -9.810
REMARK INTRA:                  -0.415
REMARK UNBOUND:                -0.567
REMARK  6 active torsions:
REMARK  status: ('A' for Active; 'I' for Inactive)
REMARK    1  A    between atoms: C_3  and  N_4 
REMARK    2  A    between atoms: N_12  and  C_29 
REMARK    3  A    between atoms: C_13  and  C_18 
REMARK    4  A    between atoms: C_18  and  N_19 
REMARK    5  A    between atoms: N_19  and  C_24 
REMARK    6  A    between atoms: C_21  and  C_27 
ROOT
HETATM    1  N   UNK A   0      28.922   6.359   7.153  1.00  0.00    -0.175 N 
ATOM      2  HN  UNK A   0      29.850   6.775   7.235  1.00  0.00     0.186 HD
HETATM    3  C   UNK A   0      28.671   5.472   6.216  1.00  0.00     0.680 A 
HETATM    4  N   UNK A   0      27.465   4.810   6.159  1.00  0.00    -0.154 N 
ATOM      5  HN  UNK A   0      27.355   4.052   5.486  1.00  0.00     0.187 HD
HETATM    6  C   UNK A   0      26.403   5.129   6.972  1.00  0.00     0.290 A 
HETATM    7  O   UNK A   0      25.357   4.440   6.870  1.00  0.00    -0.265 OA
HETATM    8  C   UNK A   0      26.627   6.150   7.895  1.00  0.00     0.151 A 
HETATM    9  N   UNK A   0      25.653   6.654   8.809  1.00  0.00    -0.309 N 
HETATM   10  C   UNK A   0      26.128   7.055  10.151  1.00  0.00     0.128 C 
HETATM   11  C   UNK A   0      27.265   8.056   9.977  1.00  0.00     0.148 C 
HETATM   12  N   UNK A   0      28.208   7.627   8.952  1.00  0.00    -0.372 N 
ATOM     13  HN  UNK A   0      29.136   8.050   8.952  1.00  0.00     0.161 HD
HETATM   14  C   UNK A   0      27.937   6.713   8.009  1.00  0.00     0.149 A 
ENDROOT
BRANCH  10  15
HETATM   15  C   UNK A   0      26.545   5.834  10.957  1.00  0.00     0.147 C 
BRANCH  15  16
HETATM   16  N   UNK A   0      27.794   6.096  11.666  1.00  0.00    -0.388 N 
ATOM     17  HN  UNK A   0      28.650   6.155  11.116  1.00  0.00     0.159 HD
BRANCH  16  18
HETATM   18  C   UNK A   0      27.893   6.270  13.041  1.00  0.00     0.028 A 
HETATM   19  C   UNK A   0      28.822   5.493  13.730  1.00  0.00     0.030 A 
HETATM   20  C   UNK A   0      28.932   5.611  15.091  1.00  0.00     0.017 A 
HETATM   21  C   UNK A   0      28.159   6.539  15.783  1.00  0.00     0.002 A 
HETATM   22  C   UNK A   0      27.267   7.337  15.082  1.00  0.00     0.017 A 
HETATM   23  C   UNK A   0      27.126   7.206  13.722  1.00  0.00     0.030 A 
BRANCH  21  24
HETATM   24  C   UNK A   0      28.292   6.738  17.270  1.00  0.00     0.269 C 
HETATM   25  O   UNK A   0      27.887   7.775  17.779  1.00  0.00    -0.301 OA
ENDBRANCH  21  24
ENDBRANCH  16  18
ENDBRANCH  15  16
ENDBRANCH  10  15
BRANCH   9  26
HETATM   26  C   UNK A   0      24.441   7.056   8.363  1.00  0.00     0.356 C 
HETATM   27  O   UNK A   0      23.378   6.612   8.850  1.00  0.00    -0.283 OA
ENDBRANCH   9  26
BRANCH   3  28
HETATM   28  N   UNK A   0      29.621   5.078   5.352  1.00  0.00    -0.234 N 
ATOM     29  HN2 UNK A   0      29.391   4.802   4.398  1.00  0.00     0.174 HD
ATOM     30  HN1 UNK A   0      30.590   5.161   5.663  1.00  0.00     0.174 HD
ENDBRANCH   3  28
TORSDOF 6
ENDMDL
MODEL 6
REMARK VINA RESULT:    -7.207      1.701      2.486
REMARK INTER + INTRA:         -10.090
REMARK INTER:                  -9.517
REMARK INTRA:                  -0.573
REMARK UNBOUND:                -0.567
REMARK  6 active torsions:
REMARK  status: ('A' for Active; 'I' for Inactive)
REMARK    1  A    between atoms: C_3  and  N_4 
REMARK    2  A    between atoms: N_12  and  C_29 
REMARK    3  A    between atoms: C_13  and  C_18 
REMARK    4  A    between atoms: C_18  and  N_19 
REMARK    5  A    between atoms: N_19  and  C_24 
REMARK    6  A    between atoms: C_21  and  C_27 
ROOT
HETATM    1  N   UNK A   0      28.849   5.155   9.559  1.00  0.00    -0.175 N 
ATOM      2  HN  UNK A   0      29.593   4.931   8.898  1.00  0.00     0.186 HD
HETATM    3  C   UNK A   0      29.087   5.158  10.852  1.00  0.00     0.680 A 
HETATM    4  N   UNK A   0      28.133   5.570  11.756  1.00  0.00    -0.154 N 
ATOM      5  HN  UNK A   0      28.398   5.664  12.736  1.00  0.00     0.187 HD
HETATM    6  C   UNK A   0      26.839   5.861  11.392  1.00  0.00     0.290 A 
HETATM    7  O   UNK A   0      26.054   6.266  12.285  1.00  0.00    -0.265 OA
HETATM    8  C   UNK A   0      26.549   5.748  10.032  1.00  0.00     0.151 A 
HETATM    9  N   UNK A   0      25.266   5.974   9.449  1.00  0.00    -0.309 N 
HETATM   10  C   UNK A   0      25.232   6.607   8.113  1.00  0.00     0.128 C 
HETATM   11  C   UNK A   0      26.110   5.788   7.173  1.00  0.00     0.148 C 
HETATM   12  N   UNK A   0      27.378   5.431   7.794  1.00  0.00    -0.372 N 
ATOM     13  HN  UNK A   0      28.145   5.147   7.183  1.00  0.00     0.161 HD
HETATM   14  C   UNK A   0      27.606   5.450   9.116  1.00  0.00     0.149 A 
ENDROOT
BRANCH  10  15
HETATM   15  C   UNK A   0      25.671   8.062   8.200  1.00  0.00     0.147 C 
BRANCH  15  16
HETATM   16  N   UNK A   0      24.506   8.937   8.296  1.00  0.00    -0.388 N 
ATOM     17  HN  UNK A   0      23.674   8.683   7.764  1.00  0.00     0.159 HD
BRANCH  16  18
HETATM   18  C   UNK A   0      24.457  10.095   9.064  1.00  0.00     0.028 A 
HETATM   19  C   UNK A   0      24.469  11.319   8.397  1.00  0.00     0.030 A 
HETATM   20  C   UNK A   0      24.452  12.485   9.117  1.00  0.00     0.017 A 
HETATM   21  C   UNK A   0      24.370  12.456  10.506  1.00  0.00     0.002 A 
HETATM   22  C   UNK A   0      24.316  11.232  11.157  1.00  0.00     0.017 A 
HETATM   23  C   UNK A   0      24.364  10.057  10.449  1.00  0.00     0.030 A 
BRANCH  21  24
HETATM   24  C   UNK A   0      24.290  13.715  11.328  1.00  0.00     0.269 C 
HETATM   25  O   UNK A   0      23.607  14.652  10.934  1.00  0.00    -0.301 OA
ENDBRANCH  21  24
ENDBRANCH  16  18
ENDBRANCH  15  16
ENDBRANCH  10  15
BRANCH   9  26
HETATM   26  C   UNK A   0      24.174   5.342   9.935  1.00  0.00     0.356 C 
HETATM   27  O   UNK A   0      23.047   5.887   9.947  1.00  0.00    -0.283 OA
ENDBRANCH   9  26
BRANCH   3  28
HETATM   28  N   UNK A   0      30.308   4.886  11.340  1.00  0.00    -0.234 N 
ATOM     29  HN2 UNK A   0      30.463   4.108  11.982  1.00  0.00     0.174 HD
ATOM     30  HN1 UNK A   0      31.086   5.428  10.964  1.00  0.00     0.174 HD
ENDBRANCH   3  28
TORSDOF 6
ENDMDL
MODEL 7
REMARK VINA RESULT:    -7.135      5.212      7.630
REMARK INTER + INTRA:          -9.996
REMARK INTER:                  -9.470
REMARK INTRA:                  -0.526
REMARK UNBOUND:                -0.567
REMARK  6 active torsions:
REMARK  status: ('A' for Active; 'I' for Inactive)
REMARK    1  A    between atoms: C_3  and  N_4 
REMARK    2  A    between atoms: N_12  and  C_29 
REMARK    3  A    between atoms: C_13  and  C_18 
REMARK    4  A    between atoms: C_18  and  N_19 
REMARK    5  A    between atoms: N_19  and  C_24 
REMARK    6  A    between atoms: C_21  and  C_27 
ROOT
HETATM    1  N   UNK A   0      33.830   7.055  10.808  1.00  0.00    -0.175 N 
ATOM      2  HN  UNK A   0      34.315   6.250  10.410  1.00  0.00     0.186 HD
HETATM    3  C   UNK A   0      34.289   8.271  10.612  1.00  0.00     0.680 A 
HETATM    4  N   UNK A   0      33.589   9.378  11.037  1.00  0.00    -0.154 N 
ATOM      5  HN  UNK A   0      33.925  10.302  10.765  1.00  0.00     0.187 HD
HETATM    6  C   UNK A   0      32.457   9.290  11.813  1.00  0.00     0.290 A 
HETATM    7  O   UNK A   0      31.869  10.358  12.118  1.00  0.00    -0.265 OA
HETATM    8  C   UNK A   0      32.029   7.999  12.122  1.00  0.00     0.151 A 
HETATM    9  N   UNK A   0      30.899   7.686  12.935  1.00  0.00    -0.309 N 
HETATM   10  C   UNK A   0      30.099   6.501  12.556  1.00  0.00     0.128 C 
HETATM   11  C   UNK A   0      31.037   5.303  12.459  1.00  0.00     0.148 C 
HETATM   12  N   UNK A   0      32.262   5.633  11.743  1.00  0.00    -0.372 N 
ATOM     13  HN  UNK A   0      32.817   4.864  11.368  1.00  0.00     0.161 HD
HETATM   14  C   UNK A   0      32.709   6.882  11.543  1.00  0.00     0.149 A 
ENDROOT
BRANCH  10  15
HETATM   15  C   UNK A   0      29.346   6.759  11.259  1.00  0.00     0.147 C 
BRANCH  15  16
HETATM   16  N   UNK A   0      28.986   5.495  10.622  1.00  0.00    -0.388 N 
ATOM     17  HN  UNK A   0      29.602   4.696  10.767  1.00  0.00     0.159 HD
BRANCH  16  18
HETATM   18  C   UNK A   0      27.859   5.310   9.831  1.00  0.00     0.028 A 
HETATM   19  C   UNK A   0      26.676   4.926  10.462  1.00  0.00     0.030 A 
HETATM   20  C   UNK A   0      25.550   4.703   9.715  1.00  0.00     0.017 A 
HETATM   21  C   UNK A   0      25.562   4.908   8.338  1.00  0.00     0.002 A 
HETATM   22  C   UNK A   0      26.733   5.331   7.726  1.00  0.00     0.017 A 
HETATM   23  C   UNK A   0      27.878   5.527   8.459  1.00  0.00     0.030 A 
BRANCH  21  24
HETATM   24  C   UNK A   0      24.329   4.730   7.493  1.00  0.00     0.269 C 
HETATM   25  O   UNK A   0      23.661   5.708   7.184  1.00  0.00    -0.301 OA
ENDBRANCH  21  24
ENDBRANCH  16  18
ENDBRANCH  15  16
ENDBRANCH  10  15
BRANCH   9  26
HETATM   26  C   UNK A   0      30.769   8.234  14.165  1.00  0.00     0.356 C 
HETATM   27  O   UNK A   0      31.614   8.039  15.067  1.00  0.00    -0.283 OA
ENDBRANCH   9  26
BRANCH   3  28
HETATM   28  N   UNK A   0      35.390   8.495   9.876  1.00  0.00    -0.234 N 
ATOM     29  HN2 UNK A   0      35.403   9.197   9.137  1.00  0.00     0.174 HD
ATOM     30  HN1 UNK A   0      36.239   8.002  10.156  1.00  0.00     0.174 HD
ENDBRANCH   3  28
TORSDOF 6
ENDMDL
MODEL 8
REMARK VINA RESULT:    -7.102      2.453      3.373
REMARK INTER + INTRA:          -9.952
REMARK INTER:                  -9.052
REMARK INTRA:                  -0.900
REMARK UNBOUND:                -0.567
REMARK  6 active torsions:
REMARK  status: ('A' for Active; 'I' for Inactive)
REMARK    1  A    between atoms: C_3  and  N_4 
REMARK    2  A    between atoms: N_12  and  C_29 
REMARK    3  A    between atoms: C_13  and  C_18 
REMARK    4  A    between atoms: C_18  and  N_19 
REMARK    5  A    between atoms: N_19  and  C_24 
REMARK    6  A    between atoms: C_21  and  C_27 
ROOT
HETATM    1  N   UNK A   0      29.424   4.967  10.538  1.00  0.00    -0.175 N 
ATOM      2  HN  UNK A   0      30.201   4.608   9.984  1.00  0.00     0.186 HD
HETATM    3  C   UNK A   0      29.549   5.118  11.838  1.00  0.00     0.680 A 
HETATM    4  N   UNK A   0      28.558   5.711  12.589  1.00  0.00    -0.154 N 
ATOM      5  HN  UNK A   0      28.743   5.910  13.572  1.00  0.00     0.187 HD
HETATM    6  C   UNK A   0      27.329   6.045  12.070  1.00  0.00     0.290 A 
HETATM    7  O   UNK A   0      26.506   6.616  12.828  1.00  0.00    -0.265 OA
HETATM    8  C   UNK A   0      27.150   5.781  10.712  1.00  0.00     0.151 A 
HETATM    9  N   UNK A   0      25.946   6.022   9.985  1.00  0.00    -0.309 N 
HETATM   10  C   UNK A   0      26.081   6.481   8.585  1.00  0.00     0.128 C 
HETATM   11  C   UNK A   0      26.965   5.487   7.840  1.00  0.00     0.148 C 
HETATM   12  N   UNK A   0      28.140   5.122   8.619  1.00  0.00    -0.372 N 
ATOM     13  HN  UNK A   0      28.930   4.708   8.124  1.00  0.00     0.161 HD
HETATM   14  C   UNK A   0      28.253   5.293   9.944  1.00  0.00     0.149 A 
ENDROOT
BRANCH  10  15
HETATM   15  C   UNK A   0      26.630   7.899   8.539  1.00  0.00     0.147 C 
BRANCH  15  16
HETATM   16  N   UNK A   0      25.577   8.861   8.850  1.00  0.00    -0.388 N 
ATOM     17  HN  UNK A   0      24.895   9.074   8.122  1.00  0.00     0.159 HD
BRANCH  16  18
HETATM   18  C   UNK A   0      25.441   9.508  10.073  1.00  0.00     0.028 A 
HETATM   19  C   UNK A   0      26.527   9.480  10.947  1.00  0.00     0.030 A 
HETATM   20  C   UNK A   0      26.425  10.079  12.175  1.00  0.00     0.017 A 
HETATM   21  C   UNK A   0      25.266  10.760  12.535  1.00  0.00     0.002 A 
HETATM   22  C   UNK A   0      24.207  10.817  11.641  1.00  0.00     0.017 A 
HETATM   23  C   UNK A   0      24.285  10.194  10.420  1.00  0.00     0.030 A 
BRANCH  21  24
HETATM   24  C   UNK A   0      25.138  11.479  13.852  1.00  0.00     0.269 C 
HETATM   25  O   UNK A   0      24.265  11.145  14.641  1.00  0.00    -0.301 OA
ENDBRANCH  21  24
ENDBRANCH  16  18
ENDBRANCH  15  16
ENDBRANCH  10  15
BRANCH   9  26
HETATM   26  C   UNK A   0      24.766   5.538  10.436  1.00  0.00     0.356 C 
HETATM   27  O   UNK A   0      23.679   5.839   9.895  1.00  0.00    -0.283 OA
ENDBRANCH   9  26
BRANCH   3  28
HETATM   28  N   UNK A   0      30.696   4.823  12.471  1.00  0.00    -0.234 N 
ATOM     29  HN2 UNK A   0      31.000   5.346  13.292  1.00  0.00     0.174 HD
ATOM     30  HN1 UNK A   0      31.196   3.993  12.154  1.00  0.00     0.174 HD
ENDBRANCH   3  28
TORSDOF 6
ENDMDL
MODEL 9
REMARK VINA RESULT:    -7.062      3.098      5.453
REMARK INTER + INTRA:          -9.899
REMARK INTER:                  -9.085
REMARK INTRA:                  -0.815
REMARK UNBOUND:                -0.567
REMARK  6 active torsions:
REMARK  status: ('A' for Active; 'I' for Inactive)
REMARK    1  A    between atoms: C_3  and  N_4 
REMARK    2  A    between atoms: N_12  and  C_29 
REMARK    3  A    between atoms: C_13  and  C_18 
REMARK    4  A    between atoms: C_18  and  N_19 
REMARK    5  A    between atoms: N_19  and  C_24 
REMARK    6  A    between atoms: C_21  and  C_27 
ROOT
HETATM    1  N   UNK A   0      24.060   8.540   8.363  1.00  0.00    -0.175 N 
ATOM      2  HN  UNK A   0      23.050   8.680   8.343  1.00  0.00     0.186 HD
HETATM    3  C   UNK A   0      24.869   9.557   8.562  1.00  0.00     0.680 A 
HETATM    4  N   UNK A   0      26.226   9.376   8.711  1.00  0.00    -0.154 N 
ATOM      5  HN  UNK A   0      26.799  10.176   8.976  1.00  0.00     0.187 HD
HETATM    6  C   UNK A   0      26.840   8.160   8.517  1.00  0.00     0.290 A 
HETATM    7  O   UNK A   0      28.079   8.090   8.715  1.00  0.00    -0.265 OA
HETATM    8  C   UNK A   0      25.997   7.097   8.192  1.00  0.00     0.151 A 
HETATM    9  N   UNK A   0      26.431   5.765   7.922  1.00  0.00    -0.309 N 
HETATM   10  C   UNK A   0      25.560   4.663   8.384  1.00  0.00     0.128 C 
HETATM   11  C   UNK A   0      24.160   4.893   7.826  1.00  0.00     0.148 C 
HETATM   12  N   UNK A   0      23.743   6.281   7.971  1.00  0.00    -0.372 N 
ATOM     13  HN  UNK A   0      22.746   6.489   7.907  1.00  0.00     0.161 HD
HETATM   14  C   UNK A   0      24.583   7.305   8.185  1.00  0.00     0.149 A 
ENDROOT
BRANCH  10  15
HETATM   15  C   UNK A   0      25.574   4.573   9.903  1.00  0.00     0.147 C 
BRANCH  15  16
HETATM   16  N   UNK A   0      26.940   4.681  10.405  1.00  0.00    -0.388 N 
ATOM     17  HN  UNK A   0      27.669   4.160   9.918  1.00  0.00     0.159 HD
BRANCH  16  18
HETATM   18  C   UNK A   0      27.314   5.447  11.503  1.00  0.00     0.028 A 
HETATM   19  C   UNK A   0      26.554   6.578  11.797  1.00  0.00     0.030 A 
HETATM   20  C   UNK A   0      26.905   7.377  12.853  1.00  0.00     0.017 A 
HETATM   21  C   UNK A   0      27.985   7.039  13.665  1.00  0.00     0.002 A 
HETATM   22  C   UNK A   0      28.709   5.890  13.389  1.00  0.00     0.017 A 
HETATM   23  C   UNK A   0      28.385   5.097  12.315  1.00  0.00     0.030 A 
BRANCH  21  24
HETATM   24  C   UNK A   0      28.366   7.861  14.868  1.00  0.00     0.269 C 
HETATM   25  O   UNK A   0      29.548   8.044  15.125  1.00  0.00    -0.301 OA
ENDBRANCH  21  24
ENDBRANCH  16  18
ENDBRANCH  15  16
ENDBRANCH  10  15
BRANCH   9  26
HETATM   26  C   UNK A   0      27.400   5.534   7.007  1.00  0.00     0.356 C 
HETATM   27  O   UNK A   0      27.248   4.707   6.079  1.00  0.00    -0.283 OA
ENDBRANCH   9  26
BRANCH   3  28
HETATM   28  N   UNK A   0      24.397  10.799   8.760  1.00  0.00    -0.234 N 
ATOM     29  HN2 UNK A   0      24.581  11.306   9.625  1.00  0.00     0.174 HD
ATOM     30  HN1 UNK A   0      23.934  11.247   7.969  1.00  0.00     0.174 HD
ENDBRANCH   3  28
TORSDOF 6
ENDMDL
MODEL 10
REMARK VINA RESULT:    -7.050      3.880      6.430
REMARK INTER + INTRA:          -9.884
REMARK INTER:                  -9.127
REMARK INTRA:                  -0.757
REMARK UNBOUND:                -0.567
REMARK  6 active torsions:
REMARK  status: ('A' for Active; 'I' for Inactive)
REMARK    1  A    between atoms: C_3  and  N_4 
REMARK    2  A    between atoms: N_12  and  C_29 
REMARK    3  A    between atoms: C_13  and  C_18 
REMARK    4  A    between atoms: C_18  and  N_19 
REMARK    5  A    between atoms: N_19  and  C_24 
REMARK    6  A    between atoms: C_21  and  C_27 
ROOT
HETATM    1  N   UNK A   0      25.754   5.441   7.174  1.00  0.00    -0.175 N 
ATOM      2  HN  UNK A   0      26.085   5.477   6.210  1.00  0.00     0.186 HD
HETATM    3  C   UNK A   0      24.594   4.893   7.459  1.00  0.00     0.680 A 
HETATM    4  N   UNK A   0      24.180   4.726   8.762  1.00  0.00    -0.154 N 
ATOM      5  HN  UNK A   0      23.327   4.196   8.940  1.00  0.00     0.187 HD
HETATM    6  C   UNK A   0      24.869   5.244   9.834  1.00  0.00     0.290 A 
HETATM    7  O   UNK A   0      24.430   5.004  10.987  1.00  0.00    -0.265 OA
HETATM    8  C   UNK A   0      26.046   5.927   9.528  1.00  0.00     0.151 A 
HETATM    9  N   UNK A   0      26.893   6.565  10.484  1.00  0.00    -0.309 N 
HETATM   10  C   UNK A   0      28.350   6.513  10.239  1.00  0.00     0.128 C 
HETATM   11  C   UNK A   0      28.619   7.057   8.841  1.00  0.00     0.148 C 
HETATM   12  N   UNK A   0      27.681   6.520   7.864  1.00  0.00    -0.372 N 
ATOM     13  HN  UNK A   0      27.936   6.578   6.877  1.00  0.00     0.161 HD
HETATM   14  C   UNK A   0      26.505   5.956   8.174  1.00  0.00     0.149 A 
ENDROOT
BRANCH  10  15
HETATM   15  C   UNK A   0      28.872   5.096  10.423  1.00  0.00     0.147 C 
BRANCH  15  16
HETATM   16  N   UNK A   0      29.984   5.084  11.369  1.00  0.00    -0.388 N 
ATOM     17  HN  UNK A   0      30.875   4.700  11.054  1.00  0.00     0.159 HD
BRANCH  16  18
HETATM   18  C   UNK A   0      29.910   5.562  12.673  1.00  0.00     0.028 A 
HETATM   19  C   UNK A   0      29.021   4.936  13.545  1.00  0.00     0.030 A 
HETATM   20  C   UNK A   0      28.894   5.394  14.830  1.00  0.00     0.017 A 
HETATM   21  C   UNK A   0      29.685   6.445  15.286  1.00  0.00     0.002 A 
HETATM   22  C   UNK A   0      30.596   7.033  14.422  1.00  0.00     0.017 A 
HETATM   23  C   UNK A   0      30.710   6.603  13.122  1.00  0.00     0.030 A 
BRANCH  21  24
HETATM   24  C   UNK A   0      29.615   6.938  16.707  1.00  0.00     0.269 C 
HETATM   25  O   UNK A   0      30.281   6.384  17.572  1.00  0.00    -0.301 OA
ENDBRANCH  21  24
ENDBRANCH  16  18
ENDBRANCH  15  16
ENDBRANCH  10  15
BRANCH   9  26
HETATM   26  C   UNK A   0      26.379   7.447  11.371  1.00  0.00     0.356 C 
HETATM   27  O   UNK A   0      26.738   7.464  12.570  1.00  0.00    -0.283 OA
ENDBRANCH   9  26
BRANCH   3  28
HETATM   28  N   UNK A   0      23.819   4.355   6.503  1.00  0.00    -0.234 N 
ATOM     29  HN2 UNK A   0      23.123   4.911   6.007  1.00  0.00     0.174 HD
ATOM     30  HN1 UNK A   0      24.027   3.394   6.229  1.00  0.00     0.174 HD
ENDBRANCH   3  28
TORSDOF 6
ENDMDL
MODEL 11
REMARK VINA RESULT:    -7.045      3.688      5.506
REMARK INTER + INTRA:          -9.876
REMARK INTER:                  -9.029
REMARK INTRA:                  -0.848
REMARK UNBOUND:                -0.567
REMARK  6 active torsions:
REMARK  status: ('A' for Active; 'I' for Inactive)
REMARK    1  A    between atoms: C_3  and  N_4 
REMARK    2  A    between atoms: N_12  and  C_29 
REMARK    3  A    between atoms: C_13  and  C_18 
REMARK    4  A    between atoms: C_18  and  N_19 
REMARK    5  A    between atoms: N_19  and  C_24 
REMARK    6  A    between atoms: C_21  and  C_27 
ROOT
HETATM    1  N   UNK A   0      32.086   6.057  12.096  1.00  0.00    -0.175 N 
ATOM      2  HN  UNK A   0      32.652   5.335  12.543  1.00  0.00     0.186 HD
HETATM    3  C   UNK A   0      32.654   6.985  11.358  1.00  0.00     0.680 A 
HETATM    4  N   UNK A   0      31.902   7.896  10.650  1.00  0.00    -0.154 N 
ATOM      5  HN  UNK A   0      32.379   8.525  10.004  1.00  0.00     0.187 HD
HETATM    6  C   UNK A   0      30.537   7.995  10.778  1.00  0.00     0.290 A 
HETATM    7  O   UNK A   0      29.937   8.834  10.059  1.00  0.00    -0.265 OA
HETATM    8  C   UNK A   0      29.940   7.084  11.650  1.00  0.00     0.151 A 
HETATM    9  N   UNK A   0      28.545   7.034  11.949  1.00  0.00    -0.309 N 
HETATM   10  C   UNK A   0      27.945   5.698  12.156  1.00  0.00     0.128 C 
HETATM   11  C   UNK A   0      28.749   4.974  13.231  1.00  0.00     0.148 C 
HETATM   12  N   UNK A   0      30.183   5.121  13.022  1.00  0.00    -0.372 N 
ATOM     13  HN  UNK A   0      30.803   4.458  13.488  1.00  0.00     0.161 HD
HETATM   14  C   UNK A   0      30.743   6.069  12.256  1.00  0.00     0.149 A 
ENDROOT
BRANCH  10  15
HETATM   15  C   UNK A   0      27.896   4.926  10.846  1.00  0.00     0.147 C 
BRANCH  15  16
HETATM   16  N   UNK A   0      26.582   5.064  10.225  1.00  0.00    -0.388 N 
ATOM     17  HN  UNK A   0      25.959   4.256  10.243  1.00  0.00     0.159 HD
BRANCH  16  18
HETATM   18  C   UNK A   0      26.124   6.223   9.610  1.00  0.00     0.028 A 
HETATM   19  C   UNK A   0      24.777   6.550   9.759  1.00  0.00     0.030 A 
HETATM   20  C   UNK A   0      24.277   7.668   9.145  1.00  0.00     0.017 A 
HETATM   21  C   UNK A   0      25.115   8.507   8.416  1.00  0.00     0.002 A 
HETATM   22  C   UNK A   0      26.462   8.195   8.308  1.00  0.00     0.017 A 
HETATM   23  C   UNK A   0      26.969   7.060   8.893  1.00  0.00     0.030 A 
BRANCH  21  24
HETATM   24  C   UNK A   0      24.614   9.774   7.775  1.00  0.00     0.269 C 
HETATM   25  O   UNK A   0      24.529  10.797   8.442  1.00  0.00    -0.301 OA
ENDBRANCH  21  24
ENDBRANCH  16  18
ENDBRANCH  15  16
ENDBRANCH  10  15
BRANCH   9  26
HETATM   26  C   UNK A   0      27.892   8.147  12.352  1.00  0.00     0.356 C 
HETATM   27  O   UNK A   0      26.649   8.166  12.501  1.00  0.00    -0.283 OA
ENDBRANCH   9  26
BRANCH   3  28
HETATM   28  N   UNK A   0      33.981   7.006  11.157  1.00  0.00    -0.234 N 
ATOM     29  HN2 UNK A   0      34.536   6.150  11.175  1.00  0.00     0.174 HD
ATOM     30  HN1 UNK A   0      34.392   7.901  10.889  1.00  0.00     0.174 HD
ENDBRANCH   3  28
TORSDOF 6
ENDMDL
MODEL 12
REMARK VINA RESULT:    -7.018      9.448     11.132
REMARK INTER + INTRA:          -9.841
REMARK INTER:                  -9.307
REMARK INTRA:                  -0.534
REMARK UNBOUND:                -0.567
REMARK  6 active torsions:
REMARK  status: ('A' for Active; 'I' for Inactive)
REMARK    1  A    between atoms: C_3  and  N_4 
REMARK    2  A    between atoms: N_12  and  C_29 
REMARK    3  A    between atoms: C_13  and  C_18 
REMARK    4  A    between atoms: C_18  and  N_19 
REMARK    5  A    between atoms: N_19  and  C_24 
REMARK    6  A    between atoms: C_21  and  C_27 
ROOT
HETATM    1  N   UNK A   0      36.660   6.795   1.152  1.00  0.00    -0.175 N 
ATOM      2  HN  UNK A   0      36.531   7.628   0.578  1.00  0.00     0.186 HD
HETATM    3  C   UNK A   0      37.539   5.880   0.807  1.00  0.00     0.680 A 
HETATM    4  N   UNK A   0      37.816   4.807   1.625  1.00  0.00    -0.154 N 
ATOM      5  HN  UNK A   0      38.583   4.185   1.372  1.00  0.00     0.187 HD
HETATM    6  C   UNK A   0      37.101   4.540   2.769  1.00  0.00     0.290 A 
HETATM    7  O   UNK A   0      37.456   3.558   3.469  1.00  0.00    -0.265 OA
HETATM    8  C   UNK A   0      36.088   5.448   3.080  1.00  0.00     0.151 A 
HETATM    9  N   UNK A   0      35.212   5.341   4.202  1.00  0.00    -0.309 N 
HETATM   10  C   UNK A   0      34.810   6.598   4.869  1.00  0.00     0.128 C 
HETATM   11  C   UNK A   0      34.221   7.531   3.817  1.00  0.00     0.148 C 
HETATM   12  N   UNK A   0      35.030   7.557   2.606  1.00  0.00    -0.372 N 
ATOM     13  HN  UNK A   0      34.905   8.342   1.966  1.00  0.00     0.161 HD
HETATM   14  C   UNK A   0      35.930   6.619   2.276  1.00  0.00     0.149 A 
ENDROOT
BRANCH  10  15
HETATM   15  C   UNK A   0      35.994   7.216   5.599  1.00  0.00     0.147 C 
BRANCH  15  16
HETATM   16  N   UNK A   0      35.707   7.331   7.025  1.00  0.00    -0.388 N 
ATOM     17  HN  UNK A   0      35.760   6.484   7.592  1.00  0.00     0.159 HD
BRANCH  16  18
HETATM   18  C   UNK A   0      35.364   8.517   7.664  1.00  0.00     0.028 A 
HETATM   19  C   UNK A   0      36.189   9.623   7.469  1.00  0.00     0.030 A 
HETATM   20  C   UNK A   0      35.904  10.803   8.104  1.00  0.00     0.017 A 
HETATM   21  C   UNK A   0      34.768  10.921   8.899  1.00  0.00     0.002 A 
HETATM   22  C   UNK A   0      33.930   9.826   9.052  1.00  0.00     0.017 A 
HETATM   23  C   UNK A   0      34.222   8.629   8.446  1.00  0.00     0.030 A 
BRANCH  21  24
HETATM   24  C   UNK A   0      34.391  12.218   9.565  1.00  0.00     0.269 C 
HETATM   25  O   UNK A   0      33.215  12.556   9.608  1.00  0.00    -0.301 OA
ENDBRANCH  21  24
ENDBRANCH  16  18
ENDBRANCH  15  16
ENDBRANCH  10  15
BRANCH   9  26
HETATM   26  C   UNK A   0      34.525   4.197   4.426  1.00  0.00     0.356 C 
HETATM   27  O   UNK A   0      33.563   3.852   3.704  1.00  0.00    -0.283 OA
ENDBRANCH   9  26
BRANCH   3  28
HETATM   28  N   UNK A   0      38.299   6.017  -0.292  1.00  0.00    -0.234 N 
ATOM     29  HN2 UNK A   0      37.882   6.144  -1.214  1.00  0.00     0.174 HD
ATOM     30  HN1 UNK A   0      39.307   6.086  -0.149  1.00  0.00     0.174 HD
ENDBRANCH   3  28
TORSDOF 6
ENDMDL
MODEL 13
REMARK VINA RESULT:    -6.995      3.233      4.599
REMARK INTER + INTRA:          -9.811
REMARK INTER:                  -9.267
REMARK INTRA:                  -0.544
REMARK UNBOUND:                -0.567
REMARK  6 active torsions:
REMARK  status: ('A' for Active; 'I' for Inactive)
REMARK    1  A    between atoms: C_3  and  N_4 
REMARK    2  A    between atoms: N_12  and  C_29 
REMARK    3  A    between atoms: C_13  and  C_18 
REMARK    4  A    between atoms: C_18  and  N_19 
REMARK    5  A    between atoms: N_19  and  C_24 
REMARK    6  A    between atoms: C_21  and  C_27 
ROOT
HETATM    1  N   UNK A   0      25.835   4.667   9.257  1.00  0.00    -0.175 N 
ATOM      2  HN  UNK A   0      25.667   3.694   9.512  1.00  0.00     0.186 HD
HETATM    3  C   UNK A   0      25.132   5.234   8.302  1.00  0.00     0.680 A 
HETATM    4  N   UNK A   0      25.257   6.576   8.020  1.00  0.00    -0.154 N 
ATOM      5  HN  UNK A   0      24.613   6.997   7.350  1.00  0.00     0.187 HD
HETATM    6  C   UNK A   0      26.215   7.373   8.603  1.00  0.00     0.290 A 
HETATM    7  O   UNK A   0      26.223   8.595   8.308  1.00  0.00    -0.265 OA
HETATM    8  C   UNK A   0      27.041   6.747   9.537  1.00  0.00     0.151 A 
HETATM    9  N   UNK A   0      28.114   7.382  10.233  1.00  0.00    -0.309 N 
HETATM   10  C   UNK A   0      28.344   6.974  11.636  1.00  0.00     0.128 C 
HETATM   11  C   UNK A   0      28.506   5.459  11.673  1.00  0.00     0.148 C 
HETATM   12  N   UNK A   0      27.499   4.789  10.861  1.00  0.00    -0.372 N 
ATOM     13  HN  UNK A   0      27.326   3.800  11.036  1.00  0.00     0.161 HD
HETATM   14  C   UNK A   0      26.783   5.388   9.897  1.00  0.00     0.149 A 
ENDROOT
BRANCH  10  15
HETATM   15  C   UNK A   0      27.211   7.462  12.527  1.00  0.00     0.147 C 
BRANCH  15  16
HETATM   16  N   UNK A   0      27.387   8.876  12.843  1.00  0.00    -0.388 N 
ATOM     17  HN  UNK A   0      28.241   9.333  12.524  1.00  0.00     0.159 HD
BRANCH  16  18
HETATM   18  C   UNK A   0      26.468   9.642  13.551  1.00  0.00     0.028 A 
HETATM   19  C   UNK A   0      26.542   9.625  14.943  1.00  0.00     0.030 A 
HETATM   20  C   UNK A   0      25.636  10.342  15.679  1.00  0.00     0.017 A 
HETATM   21  C   UNK A   0      24.676  11.128  15.048  1.00  0.00     0.002 A 
HETATM   22  C   UNK A   0      24.638  11.170  13.662  1.00  0.00     0.017 A 
HETATM   23  C   UNK A   0      25.521  10.432  12.912  1.00  0.00     0.030 A 
BRANCH  21  24
HETATM   24  C   UNK A   0      23.701  11.974  15.823  1.00  0.00     0.269 C 
HETATM   25  O   UNK A   0      23.465  11.705  16.994  1.00  0.00    -0.301 OA
ENDBRANCH  21  24
ENDBRANCH  16  18
ENDBRANCH  15  16
ENDBRANCH  10  15
BRANCH   9  26
HETATM   26  C   UNK A   0      29.065   8.059   9.552  1.00  0.00     0.356 C 
HETATM   27  O   UNK A   0      30.050   8.573  10.128  1.00  0.00    -0.283 OA
ENDBRANCH   9  26
BRANCH   3  28
HETATM   28  N   UNK A   0      24.169   4.564   7.648  1.00  0.00    -0.234 N 
ATOM     29  HN2 UNK A   0      23.777   4.914   6.774  1.00  0.00     0.174 HD
ATOM     30  HN1 UNK A   0      23.920   3.644   8.012  1.00  0.00     0.174 HD
ENDBRANCH   3  28
TORSDOF 6
ENDMDL
MODEL 14
REMARK VINA RESULT:    -6.925      4.654      6.562
REMARK INTER + INTRA:          -9.719
REMARK INTER:                  -9.258
REMARK INTRA:                  -0.461
REMARK UNBOUND:                -0.567
REMARK  6 active torsions:
REMARK  status: ('A' for Active; 'I' for Inactive)
REMARK    1  A    between atoms: C_3  and  N_4 
REMARK    2  A    between atoms: N_12  and  C_29 
REMARK    3  A    between atoms: C_13  and  C_18 
REMARK    4  A    between atoms: C_18  and  N_19 
REMARK    5  A    between atoms: N_19  and  C_24 
REMARK    6  A    between atoms: C_21  and  C_27 
ROOT
HETATM    1  N   UNK A   0      25.790   4.709   8.603  1.00  0.00    -0.175 N 
ATOM      2  HN  UNK A   0      25.692   3.697   8.683  1.00  0.00     0.186 HD
HETATM    3  C   UNK A   0      25.056   5.382   7.744  1.00  0.00     0.680 A 
HETATM    4  N   UNK A   0      25.084   6.758   7.701  1.00  0.00    -0.154 N 
ATOM      5  HN  UNK A   0      24.417   7.242   7.099  1.00  0.00     0.187 HD
HETATM    6  C   UNK A   0      25.973   7.508   8.435  1.00  0.00     0.290 A 
HETATM    7  O   UNK A   0      25.892   8.760   8.355  1.00  0.00    -0.265 OA
HETATM    8  C   UNK A   0      26.834   6.791   9.265  1.00  0.00     0.151 A 
HETATM    9  N   UNK A   0      27.848   7.370  10.085  1.00  0.00    -0.309 N 
HETATM   10  C   UNK A   0      28.095   6.743  11.402  1.00  0.00     0.128 C 
HETATM   11  C   UNK A   0      28.369   5.259  11.180  1.00  0.00     0.148 C 
HETATM   12  N   UNK A   0      27.423   4.671  10.242  1.00  0.00    -0.372 N 
ATOM     13  HN  UNK A   0      27.323   3.655  10.240  1.00  0.00     0.161 HD
HETATM   14  C   UNK A   0      26.675   5.374   9.379  1.00  0.00     0.149 A 
ENDROOT
BRANCH  10  15
HETATM   15  C   UNK A   0      26.919   6.985  12.337  1.00  0.00     0.147 C 
BRANCH  15  16
HETATM   16  N   UNK A   0      27.291   7.933  13.383  1.00  0.00    -0.388 N 
ATOM     17  HN  UNK A   0      27.000   8.905  13.271  1.00  0.00     0.159 HD
BRANCH  16  18
HETATM   18  C   UNK A   0      28.015   7.601  14.521  1.00  0.00     0.028 A 
HETATM   19  C   UNK A   0      27.304   7.215  15.656  1.00  0.00     0.030 A 
HETATM   20  C   UNK A   0      27.978   6.908  16.809  1.00  0.00     0.017 A 
HETATM   21  C   UNK A   0      29.369   6.927  16.839  1.00  0.00     0.002 A 
HETATM   22  C   UNK A   0      30.069   7.271  15.692  1.00  0.00     0.017 A 
HETATM   23  C   UNK A   0      29.404   7.611  14.540  1.00  0.00     0.030 A 
BRANCH  21  24
HETATM   24  C   UNK A   0      30.146   6.539  18.070  1.00  0.00     0.269 C 
HETATM   25  O   UNK A   0      31.287   6.113  17.955  1.00  0.00    -0.301 OA
ENDBRANCH  21  24
ENDBRANCH  16  18
ENDBRANCH  15  16
ENDBRANCH  10  15
BRANCH   9  26
HETATM   26  C   UNK A   0      28.754   8.222   9.553  1.00  0.00     0.356 C 
HETATM   27  O   UNK A   0      29.578   8.839  10.265  1.00  0.00    -0.283 OA
ENDBRANCH   9  26
BRANCH   3  28
HETATM   28  N   UNK A   0      24.152   4.768   6.962  1.00  0.00    -0.234 N 
ATOM     29  HN2 UNK A   0      23.180   4.667   7.252  1.00  0.00     0.174 HD
ATOM     30  HN1 UNK A   0      24.460   4.498   6.028  1.00  0.00     0.174 HD
ENDBRANCH   3  28
TORSDOF 6
ENDMDL
MODEL 15
REMARK VINA RESULT:    -6.902      6.129      8.696
REMARK INTER + INTRA:          -9.688
REMARK INTER:                  -9.226
REMARK INTRA:                  -0.462
REMARK UNBOUND:                -0.567
REMARK  6 active torsions:
REMARK  status: ('A' for Active; 'I' for Inactive)
REMARK    1  A    between atoms: C_3  and  N_4 
REMARK    2  A    between atoms: N_12  and  C_29 
REMARK    3  A    between atoms: C_13  and  C_18 
REMARK    4  A    between atoms: C_18  and  N_19 
REMARK    5  A    between atoms: N_19  and  C_24 
REMARK    6  A    between atoms: C_21  and  C_27 
ROOT
HETATM    1  N   UNK A   0      35.809   8.870   8.850  1.00  0.00    -0.175 N 
ATOM      2  HN  UNK A   0      36.380   8.046   8.663  1.00  0.00     0.186 HD
HETATM    3  C   UNK A   0      36.014   9.985   8.183  1.00  0.00     0.680 A 
HETATM    4  N   UNK A   0      35.182  11.072   8.331  1.00  0.00    -0.154 N 
ATOM      5  HN  UNK A   0      35.310  11.873   7.713  1.00  0.00     0.187 HD
HETATM    6  C   UNK A   0      34.186  11.124   9.278  1.00  0.00     0.290 A 
HETATM    7  O   UNK A   0      33.456  12.146   9.309  1.00  0.00    -0.265 OA
HETATM    8  C   UNK A   0      34.038   9.984  10.069  1.00  0.00     0.151 A 
HETATM    9  N   UNK A   0      33.089   9.840  11.125  1.00  0.00    -0.309 N 
HETATM   10  C   UNK A   0      32.477   8.506  11.308  1.00  0.00     0.128 C 
HETATM   11  C   UNK A   0      33.596   7.481  11.452  1.00  0.00     0.148 C 
HETATM   12  N   UNK A   0      34.647   7.688  10.463  1.00  0.00    -0.372 N 
ATOM     13  HN  UNK A   0      35.282   6.913  10.275  1.00  0.00     0.161 HD
HETATM   14  C   UNK A   0      34.834   8.830   9.785  1.00  0.00     0.149 A 
ENDROOT
BRANCH  10  15
HETATM   15  C   UNK A   0      31.539   8.187  10.152  1.00  0.00     0.147 C 
BRANCH  15  16
HETATM   16  N   UNK A   0      30.218   7.825  10.657  1.00  0.00    -0.388 N 
ATOM     17  HN  UNK A   0      30.000   8.050  11.627  1.00  0.00     0.159 HD
BRANCH  16  18
HETATM   18  C   UNK A   0      29.238   7.191   9.902  1.00  0.00     0.028 A 
HETATM   19  C   UNK A   0      28.789   5.944  10.333  1.00  0.00     0.030 A 
HETATM   20  C   UNK A   0      27.845   5.272   9.603  1.00  0.00     0.017 A 
HETATM   21  C   UNK A   0      27.293   5.848   8.462  1.00  0.00     0.002 A 
HETATM   22  C   UNK A   0      27.716   7.108   8.066  1.00  0.00     0.017 A 
HETATM   23  C   UNK A   0      28.684   7.778   8.772  1.00  0.00     0.030 A 
BRANCH  21  24
HETATM   24  C   UNK A   0      26.212   5.165   7.666  1.00  0.00     0.269 C 
HETATM   25  O   UNK A   0      26.461   4.748   6.543  1.00  0.00    -0.301 OA
ENDBRANCH  21  24
ENDBRANCH  16  18
ENDBRANCH  15  16
ENDBRANCH  10  15
BRANCH   9  26
HETATM   26  C   UNK A   0      33.011  10.769  12.105  1.00  0.00     0.356 C 
HETATM   27  O   UNK A   0      32.002  11.494  12.248  1.00  0.00    -0.283 OA
ENDBRANCH   9  26
BRANCH   3  28
HETATM   28  N   UNK A   0      36.960  10.070   7.234  1.00  0.00    -0.234 N 
ATOM     29  HN2 UNK A   0      37.818   9.519   7.286  1.00  0.00     0.174 HD
ATOM     30  HN1 UNK A   0      36.739  10.633   6.412  1.00  0.00     0.174 HD
ENDBRANCH   3  28
TORSDOF 6
ENDMDL
MODEL 16
REMARK VINA RESULT:    -6.873      4.425      7.058
REMARK INTER + INTRA:          -9.650
REMARK INTER:                  -9.045
REMARK INTRA:                  -0.605
REMARK UNBOUND:                -0.567
REMARK  6 active torsions:
REMARK  status: ('A' for Active; 'I' for Inactive)
REMARK    1  A    between atoms: C_3  and  N_4 
REMARK    2  A    between atoms: N_12  and  C_29 
REMARK    3  A    between atoms: C_13  and  C_18 
REMARK    4  A    between atoms: C_18  and  N_19 
REMARK    5  A    between atoms: N_19  and  C_24 
REMARK    6  A    between atoms: C_21  and  C_27 
ROOT
HETATM    1  N   UNK A   0      32.921   7.279  12.004  1.00  0.00    -0.175 N 
ATOM      2  HN  UNK A   0      33.599   6.922  12.676  1.00  0.00     0.186 HD
HETATM    3  C   UNK A   0      33.323   7.785  10.859  1.00  0.00     0.680 A 
HETATM    4  N   UNK A   0      32.424   8.164   9.887  1.00  0.00    -0.154 N 
ATOM      5  HN  UNK A   0      32.781   8.445   8.974  1.00  0.00     0.187 HD
HETATM    6  C   UNK A   0      31.065   8.180  10.097  1.00  0.00     0.290 A 
HETATM    7  O   UNK A   0      30.325   8.506   9.134  1.00  0.00    -0.265 OA
HETATM    8  C   UNK A   0      30.637   7.751  11.353  1.00  0.00     0.151 A 
HETATM    9  N   UNK A   0      29.277   7.718  11.786  1.00  0.00    -0.309 N 
HETATM   10  C   UNK A   0      28.874   6.597  12.663  1.00  0.00     0.128 C 
HETATM   11  C   UNK A   0      29.817   6.564  13.860  1.00  0.00     0.148 C 
HETATM   12  N   UNK A   0      31.207   6.728  13.457  1.00  0.00    -0.372 N 
ATOM     13  HN  UNK A   0      31.931   6.436  14.113  1.00  0.00     0.161 HD
HETATM   14  C   UNK A   0      31.598   7.238  12.279  1.00  0.00     0.149 A 
ENDROOT
BRANCH  10  15
HETATM   15  C   UNK A   0      28.869   5.288  11.888  1.00  0.00     0.147 C 
BRANCH  15  16
HETATM   16  N   UNK A   0      27.504   4.793  11.736  1.00  0.00    -0.388 N 
ATOM     17  HN  UNK A   0      27.061   4.361  12.547  1.00  0.00     0.159 HD
BRANCH  16  18
HETATM   18  C   UNK A   0      26.767   4.871  10.560  1.00  0.00     0.028 A 
HETATM   19  C   UNK A   0      25.402   4.597  10.628  1.00  0.00     0.030 A 
HETATM   20  C   UNK A   0      24.645   4.633   9.487  1.00  0.00     0.017 A 
HETATM   21  C   UNK A   0      25.218   4.992   8.270  1.00  0.00     0.002 A 
HETATM   22  C   UNK A   0      26.569   5.302   8.221  1.00  0.00     0.017 A 
HETATM   23  C   UNK A   0      27.345   5.240   9.353  1.00  0.00     0.030 A 
BRANCH  21  24
HETATM   24  C   UNK A   0      24.407   5.098   7.006  1.00  0.00     0.269 C 
HETATM   25  O   UNK A   0      23.379   5.763   7.002  1.00  0.00    -0.301 OA
ENDBRANCH  21  24
ENDBRANCH  16  18
ENDBRANCH  15  16
ENDBRANCH  10  15
BRANCH   9  26
HETATM   26  C   UNK A   0      28.499   8.819  11.679  1.00  0.00     0.356 C 
HETATM   27  O   UNK A   0      28.923   9.958  11.977  1.00  0.00    -0.283 OA
ENDBRANCH   9  26
BRANCH   3  28
HETATM   28  N   UNK A   0      34.625   7.834  10.533  1.00  0.00    -0.234 N 
ATOM     29  HN2 UNK A   0      35.343   7.458  11.152  1.00  0.00     0.174 HD
ATOM     30  HN1 UNK A   0      34.854   8.174   9.598  1.00  0.00     0.174 HD
ENDBRANCH   3  28
TORSDOF 6
ENDMDL
MODEL 17
REMARK VINA RESULT:    -6.865      4.989      7.244
REMARK INTER + INTRA:          -9.639
REMARK INTER:                  -9.019
REMARK INTRA:                  -0.621
REMARK UNBOUND:                -0.567
REMARK  6 active torsions:
REMARK  status: ('A' for Active; 'I' for Inactive)
REMARK    1  A    between atoms: C_3  and  N_4 
REMARK    2  A    between atoms: N_12  and  C_29 
REMARK    3  A    between atoms: C_13  and  C_18 
REMARK    4  A    between atoms: C_18  and  N_19 
REMARK    5  A    between atoms: N_19  and  C_24 
REMARK    6  A    between atoms: C_21  and  C_27 
ROOT
HETATM    1  N   UNK A   0      32.008   5.999  11.930  1.00  0.00    -0.175 N 
ATOM      2  HN  UNK A   0      32.145   5.246  11.257  1.00  0.00     0.186 HD
HETATM    3  C   UNK A   0      32.908   6.950  12.057  1.00  0.00     0.680 A 
HETATM    4  N   UNK A   0      32.690   8.038  12.872  1.00  0.00    -0.154 N 
ATOM      5  HN  UNK A   0      33.363   8.804  12.854  1.00  0.00     0.187 HD
HETATM    6  C   UNK A   0      31.605   8.135  13.711  1.00  0.00     0.290 A 
HETATM    7  O   UNK A   0      31.476   9.186  14.387  1.00  0.00    -0.265 OA
HETATM    8  C   UNK A   0      30.703   7.072  13.664  1.00  0.00     0.151 A 
HETATM    9  N   UNK A   0      29.530   6.960  14.470  1.00  0.00    -0.309 N 
HETATM   10  C   UNK A   0      28.336   6.350  13.847  1.00  0.00     0.128 C 
HETATM   11  C   UNK A   0      28.732   4.988  13.287  1.00  0.00     0.148 C 
HETATM   12  N   UNK A   0      29.998   5.048  12.568  1.00  0.00    -0.372 N 
ATOM     13  HN  UNK A   0      30.213   4.291  11.919  1.00  0.00     0.161 HD
HETATM   14  C   UNK A   0      30.899   6.032  12.703  1.00  0.00     0.149 A 
ENDROOT
BRANCH  10  15
HETATM   15  C   UNK A   0      27.759   7.272  12.782  1.00  0.00     0.147 C 
BRANCH  15  16
HETATM   16  N   UNK A   0      26.525   6.711  12.241  1.00  0.00    -0.388 N 
ATOM     17  HN  UNK A   0      25.715   6.658  12.859  1.00  0.00     0.159 HD
BRANCH  16  18
HETATM   18  C   UNK A   0      26.380   6.245  10.940  1.00  0.00     0.028 A 
HETATM   19  C   UNK A   0      25.400   5.283  10.698  1.00  0.00     0.030 A 
HETATM   20  C   UNK A   0      25.244   4.775   9.435  1.00  0.00     0.017 A 
HETATM   21  C   UNK A   0      26.020   5.251   8.382  1.00  0.00     0.002 A 
HETATM   22  C   UNK A   0      26.963   6.238   8.625  1.00  0.00     0.017 A 
HETATM   23  C   UNK A   0      27.150   6.733   9.893  1.00  0.00     0.030 A 
BRANCH  21  24
HETATM   24  C   UNK A   0      25.837   4.758   6.971  1.00  0.00     0.269 C 
HETATM   25  O   UNK A   0      26.780   4.794   6.191  1.00  0.00    -0.301 OA
ENDBRANCH  21  24
ENDBRANCH  16  18
ENDBRANCH  15  16
ENDBRANCH  10  15
BRANCH   9  26
HETATM   26  C   UNK A   0      29.609   7.091  15.814  1.00  0.00     0.356 C 
HETATM   27  O   UNK A   0      30.225   6.263  16.523  1.00  0.00    -0.283 OA
ENDBRANCH   9  26
BRANCH   3  28
HETATM   28  N   UNK A   0      34.018   6.969  11.301  1.00  0.00    -0.234 N 
ATOM     29  HN2 UNK A   0      34.368   7.836  10.893  1.00  0.00     0.174 HD
ATOM     30  HN1 UNK A   0      34.547   6.099  11.238  1.00  0.00     0.174 HD
ENDBRANCH   3  28
TORSDOF 6
ENDMDL
MODEL 18
REMARK VINA RESULT:    -6.863      6.877     10.076
REMARK INTER + INTRA:          -9.637
REMARK INTER:                  -9.193
REMARK INTRA:                  -0.444
REMARK UNBOUND:                -0.567
REMARK  6 active torsions:
REMARK  status: ('A' for Active; 'I' for Inactive)
REMARK    1  A    between atoms: C_3  and  N_4 
REMARK    2  A    between atoms: N_12  and  C_29 
REMARK    3  A    between atoms: C_13  and  C_18 
REMARK    4  A    between atoms: C_18  and  N_19 
REMARK    5  A    between atoms: N_19  and  C_24 
REMARK    6  A    between atoms: C_21  and  C_27 
ROOT
HETATM    1  N   UNK A   0      29.746   6.907  11.485  1.00  0.00    -0.175 N 
ATOM      2  HN  UNK A   0      28.981   7.566  11.335  1.00  0.00     0.186 HD
HETATM    3  C   UNK A   0      29.498   5.626  11.646  1.00  0.00     0.680 A 
HETATM    4  N   UNK A   0      30.517   4.704  11.731  1.00  0.00    -0.154 N 
ATOM      5  HN  UNK A   0      30.279   3.712  11.741  1.00  0.00     0.187 HD
HETATM    6  C   UNK A   0      31.842   5.064  11.803  1.00  0.00     0.290 A 
HETATM    7  O   UNK A   0      32.700   4.146  11.840  1.00  0.00    -0.265 OA
HETATM    8  C   UNK A   0      32.105   6.433  11.749  1.00  0.00     0.151 A 
HETATM    9  N   UNK A   0      33.404   7.019  11.837  1.00  0.00    -0.309 N 
HETATM   10  C   UNK A   0      33.662   8.218  11.011  1.00  0.00     0.128 C 
HETATM   11  C   UNK A   0      32.586   9.253  11.322  1.00  0.00     0.148 C 
HETATM   12  N   UNK A   0      31.259   8.654  11.367  1.00  0.00    -0.372 N 
ATOM     13  HN  UNK A   0      30.453   9.273  11.275  1.00  0.00     0.161 HD
HETATM   14  C   UNK A   0      31.026   7.342  11.521  1.00  0.00     0.149 A 
ENDROOT
BRANCH  10  15
HETATM   15  C   UNK A   0      33.709   7.851   9.536  1.00  0.00     0.147 C 
BRANCH  15  16
HETATM   16  N   UNK A   0      34.999   8.220   8.962  1.00  0.00    -0.388 N 
ATOM     17  HN  UNK A   0      35.749   8.480   9.602  1.00  0.00     0.159 HD
BRANCH  16  18
HETATM   18  C   UNK A   0      35.274   8.242   7.599  1.00  0.00     0.028 A 
HETATM   19  C   UNK A   0      35.019   7.085   6.865  1.00  0.00     0.030 A 
HETATM   20  C   UNK A   0      35.303   7.055   5.525  1.00  0.00     0.017 A 
HETATM   21  C   UNK A   0      35.796   8.187   4.882  1.00  0.00     0.002 A 
HETATM   22  C   UNK A   0      36.007   9.345   5.614  1.00  0.00     0.017 A 
HETATM   23  C   UNK A   0      35.755   9.380   6.963  1.00  0.00     0.030 A 
BRANCH  21  24
HETATM   24  C   UNK A   0      36.066   8.208   3.400  1.00  0.00     0.269 C 
HETATM   25  O   UNK A   0      37.210   8.058   2.992  1.00  0.00    -0.301 OA
ENDBRANCH  21  24
ENDBRANCH  16  18
ENDBRANCH  15  16
ENDBRANCH  10  15
BRANCH   9  26
HETATM   26  C   UNK A   0      34.229   6.702  12.861  1.00  0.00     0.356 C 
HETATM   27  O   UNK A   0      34.408   7.475  13.828  1.00  0.00    -0.283 OA
ENDBRANCH   9  26
BRANCH   3  28
HETATM   28  N   UNK A   0      28.245   5.144  11.603  1.00  0.00    -0.234 N 
ATOM     29  HN2 UNK A   0      27.643   5.155  12.426  1.00  0.00     0.174 HD
ATOM     30  HN1 UNK A   0      27.892   4.860  10.689  1.00  0.00     0.174 HD
ENDBRANCH   3  28
TORSDOF 6
ENDMDL
MODEL 19
REMARK VINA RESULT:    -6.763      4.988      6.547
REMARK INTER + INTRA:          -9.504
REMARK INTER:                  -8.683
REMARK INTRA:                  -0.821
REMARK UNBOUND:                -0.567
REMARK  6 active torsions:
REMARK  status: ('A' for Active; 'I' for Inactive)
REMARK    1  A    between atoms: C_3  and  N_4 
REMARK    2  A    between atoms: N_12  and  C_29 
REMARK    3  A    between atoms: C_13  and  C_18 
REMARK    4  A    between atoms: C_18  and  N_19 
REMARK    5  A    between atoms: N_19  and  C_24 
REMARK    6  A    between atoms: C_21  and  C_27 
ROOT
HETATM    1  N   UNK A   0      27.855   4.760   9.832  1.00  0.00    -0.175 N 
ATOM      2  HN  UNK A   0      28.148   3.909   9.351  1.00  0.00     0.186 HD
HETATM    3  C   UNK A   0      26.700   5.319   9.549  1.00  0.00     0.680 A 
HETATM    4  N   UNK A   0      26.231   6.398  10.266  1.00  0.00    -0.154 N 
ATOM      5  HN  UNK A   0      25.283   6.728  10.088  1.00  0.00     0.187 HD
HETATM    6  C   UNK A   0      26.988   7.048  11.212  1.00  0.00     0.290 A 
HETATM    7  O   UNK A   0      26.456   7.998  11.840  1.00  0.00    -0.265 OA
HETATM    8  C   UNK A   0      28.263   6.527  11.436  1.00  0.00     0.151 A 
HETATM    9  N   UNK A   0      29.217   7.067  12.350  1.00  0.00    -0.309 N 
HETATM   10  C   UNK A   0      30.074   6.107  13.079  1.00  0.00     0.128 C 
HETATM   11  C   UNK A   0      30.761   5.207  12.057  1.00  0.00     0.148 C 
HETATM   12  N   UNK A   0      29.832   4.746  11.034  1.00  0.00    -0.372 N 
ATOM     13  HN  UNK A   0      30.097   3.929  10.484  1.00  0.00     0.161 HD
HETATM   14  C   UNK A   0      28.652   5.325  10.767  1.00  0.00     0.149 A 
ENDROOT
BRANCH  10  15
HETATM   15  C   UNK A   0      29.252   5.320  14.090  1.00  0.00     0.147 C 
BRANCH  15  16
HETATM   16  N   UNK A   0      29.345   5.938  15.409  1.00  0.00    -0.388 N 
ATOM     17  HN  UNK A   0      30.115   5.656  16.015  1.00  0.00     0.159 HD
BRANCH  16  18
HETATM   18  C   UNK A   0      28.451   6.885  15.895  1.00  0.00     0.028 A 
HETATM   19  C   UNK A   0      28.795   7.566  17.062  1.00  0.00     0.030 A 
HETATM   20  C   UNK A   0      27.929   8.486  17.592  1.00  0.00     0.017 A 
HETATM   21  C   UNK A   0      26.732   8.783  16.946  1.00  0.00     0.002 A 
HETATM   22  C   UNK A   0      26.419   8.130  15.763  1.00  0.00     0.017 A 
HETATM   23  C   UNK A   0      27.264   7.183  15.239  1.00  0.00     0.030 A 
BRANCH  21  24
HETATM   24  C   UNK A   0      25.782   9.829  17.467  1.00  0.00     0.269 C 
HETATM   25  O   UNK A   0      26.164  10.622  18.317  1.00  0.00    -0.301 OA
ENDBRANCH  21  24
ENDBRANCH  16  18
ENDBRANCH  15  16
ENDBRANCH  10  15
BRANCH   9  26
HETATM   26  C   UNK A   0      29.548   8.377  12.297  1.00  0.00     0.356 C 
HETATM   27  O   UNK A   0      29.976   8.909  11.249  1.00  0.00    -0.283 OA
ENDBRANCH   9  26
BRANCH   3  28
HETATM   28  N   UNK A   0      25.867   4.788   8.639  1.00  0.00    -0.234 N 
ATOM     29  HN2 UNK A   0      24.859   4.766   8.789  1.00  0.00     0.174 HD
ATOM     30  HN1 UNK A   0      26.279   4.498   7.751  1.00  0.00     0.174 HD
ENDBRANCH   3  28
TORSDOF 6
ENDMDL
