REMARK  10 active torsions:
REMARK  status: ('A' for Active; 'I' for Inactive)
REMARK       I    between atoms: N_1  and  C_6 
REMARK    1  A    between atoms: N_1  and  C_21 
REMARK    2  A    between atoms: C_3  and  O_25 
REMARK    3  A    between atoms: C_4  and  C_5 
REMARK    4  A    between atoms: C_5  and  O_23 
REMARK    5  A    between atoms: C_6  and  C_7 
REMARK    6  A    between atoms: C_7  and  C_17 
REMARK    7  A    between atoms: C_8  and  C_17 
REMARK    8  A    between atoms: C_9  and  N_13 
REMARK    9  A    between atoms: C_27  and  O_28 
REMARK   10  A    between atoms: C_30  and  O_31 
ROOT
HETATM    1  C   UNL     1      34.320  24.260  29.849  1.00  0.00     0.113 C 
HETATM    2  C   UNL     1      34.753  25.581  29.713  1.00  0.00     0.105 C 
HETATM    3  N   UNL     1      35.189  26.600  29.586  1.00  0.00    -0.191 NA
ENDROOT
BRANCH   1   4
HETATM    4  C   UNL     1      32.892  23.818  29.849  1.00  0.00     0.039 C 
BRANCH   4   5
HETATM    5  C   UNL     1      31.782  24.562  29.429  1.00  0.00    -0.035 A 
HETATM    6  C   UNL     1      30.575  23.872  29.435  1.00  0.00     0.013 A 
HETATM    7  C   UNL     1      29.389  24.470  29.013  1.00  0.00     0.030 A 
HETATM    8  C   UNL     1      29.392  25.801  28.568  1.00  0.00     0.029 A 
HETATM    9  C   UNL     1      30.619  26.498  28.580  1.00  0.00     0.030 A 
HETATM   10  C   UNL     1      31.806  25.900  29.009  1.00  0.00     0.013 A 
BRANCH   8  11
HETATM   11  N   UNL     1      28.225  26.386  28.113  1.00  0.00    -0.390 N 
HETATM   12  C   UNL     1      27.013  25.557  28.006  1.00  0.00     0.149 C 
HETATM   13  C   UNL     1      28.279  27.713  27.478  1.00  0.00     0.149 C 
ENDBRANCH   8  11
ENDBRANCH   4   5
ENDBRANCH   1   4
BRANCH   1  14
HETATM   14  C   UNL     1      35.376  23.223  30.258  1.00  0.00     0.264 C 
HETATM   15  O   UNL     1      35.083  22.039  30.366  1.00  0.00    -0.267 OA
HETATM   16  N   UNL     1      36.613  23.695  30.420  1.00  0.00    -0.327 N 
ATOM     17  HN  UNL     1      36.799  24.689  30.287  1.00  0.00     0.165 HD
BRANCH  16  18
HETATM   18  C   UNL     1      37.708  22.791  30.789  1.00  0.00     0.255 C 
HETATM   19  C   UNL     1      39.016  23.365  30.278  1.00  0.00     0.198 C 
HETATM   20  C   UNL     1      40.141  22.384  30.664  1.00  0.00     0.182 C 
HETATM   21  C   UNL     1      40.130  22.113  32.165  1.00  0.00     0.180 C 
HETATM   22  C   UNL     1      38.718  21.722  32.648  1.00  0.00     0.179 C 
HETATM   23  O   UNL     1      37.769  22.738  32.270  1.00  0.00    -0.354 OA
BRANCH  19  24
HETATM   24  O   UNL     1      38.921  23.489  28.856  1.00  0.00    -0.389 OA
ATOM     25  HO  UNL     1      38.228  24.093  28.618  1.00  0.00     0.210 HD
ENDBRANCH  19  24
BRANCH  20  26
HETATM   26  O   UNL     1      41.411  22.898  30.289  1.00  0.00    -0.390 OA
ATOM     27  HO  UNL     1      42.104  22.294  30.527  1.00  0.00     0.210 HD
ENDBRANCH  20  26
BRANCH  21  28
HETATM   28  O   UNL     1      41.044  21.047  32.441  1.00  0.00    -0.390 OA
ATOM     29  HO  UNL     1      41.037  20.878  33.376  1.00  0.00     0.210 HD
ENDBRANCH  21  28
BRANCH  22  30
HETATM   30  C   UNL     1      38.663  21.551  34.161  1.00  0.00     0.198 C 
BRANCH  30  31
HETATM   31  O   UNL     1      39.146  22.735  34.799  1.00  0.00    -0.398 OA
ATOM     32  HO  UNL     1      39.112  22.628  35.742  1.00  0.00     0.209 HD
ENDBRANCH  30  31
ENDBRANCH  22  30
ENDBRANCH  16  18
ENDBRANCH   1  14
TORSDOF 10
