MODEL 1
REMARK VINA RESULT:    -7.605      0.000      0.000
REMARK INTER + INTRA:          -9.898
REMARK INTER:                  -9.384
REMARK INTRA:                  -0.514
REMARK UNBOUND:                -0.514
REMARK  4 active torsions:
REMARK  status: ('A' for Active; 'I' for Inactive)
REMARK    1  A    between atoms: C_7  and  C_10 
REMARK    2  A    between atoms: C_10  and  C_11 
REMARK    3  A    between atoms: C_11  and  S_25 
REMARK    4  A    between atoms: C_12  and  S_25 
ROOT
HETATM    1  C   UNL     1     -31.665   2.094 -12.065  1.00  0.00     0.048 C 
HETATM    2  C   UNL     1     -33.508   3.743 -12.960  1.00  0.00     0.018 A 
HETATM    3  C   UNL     1     -35.562   4.783 -13.456  1.00  0.00     0.084 A 
HETATM    4  C   UNL     1     -33.438   4.442 -11.725  1.00  0.00    -0.005 A 
HETATM    5  C   UNL     1     -32.230   4.289 -10.917  1.00  0.00     0.050 A 
HETATM    6  C   UNL     1     -30.770   5.212  -9.307  1.00  0.00     0.144 A 
HETATM    7  C   UNL     1     -30.147   3.155 -10.279  1.00  0.00     0.099 A 
HETATM    8  C   UNL     1     -31.352   3.189 -11.084  1.00  0.00    -0.015 A 
HETATM    9  C   UNL     1     -32.370   2.731 -13.339  1.00  0.00     0.062 C 
HETATM   10  C   UNL     1     -35.542   5.553 -12.275  1.00  0.00    -0.005 A 
HETATM   11  C   UNL     1     -34.449   5.419 -11.365  1.00  0.00     0.071 A 
HETATM   12  N   UNL     1     -29.905   4.197  -9.426  1.00  0.00    -0.346 N 
ATOM     13  HN  UNL     1     -29.050   4.200  -8.869  1.00  0.00     0.167 HD
HETATM   14  N   UNL     1     -34.561   3.903 -13.822  1.00  0.00    -0.369 N 
ATOM     15  HN  UNL     1     -34.604   3.391 -14.702  1.00  0.00     0.165 HD
HETATM   16  N   UNL     1     -31.944   5.320  -9.985  1.00  0.00    -0.336 N 
ATOM     17  HN  UNL     1     -32.585   6.099  -9.831  1.00  0.00     0.168 HD
ENDROOT
BRANCH   6  18
HETATM   18  S   UNL     1     -30.472   6.520  -8.170  1.00  0.00    -0.086 SA
BRANCH  18  19
HETATM   19  C   UNL     1     -31.875   7.619  -8.178  1.00  0.00     0.161 C 
BRANCH  19  20
HETATM   20  C   UNL     1     -33.160   7.146  -7.589  1.00  0.00     0.144 C 
HETATM   21  O   UNL     1     -33.188   5.976  -7.095  1.00  0.00    -0.296 OA
BRANCH  20  22
HETATM   22  C   UNL     1     -34.389   7.963  -7.376  1.00  0.00     0.010 C 
HETATM   23  C   UNL     1     -34.393   9.299  -8.161  1.00  0.00     0.022 C 
HETATM   24  C   UNL     1     -34.545   8.277  -5.828  1.00  0.00     0.022 C 
HETATM   25  C   UNL     1     -35.558   7.009  -7.847  1.00  0.00     0.022 C 
ENDBRANCH  20  22
ENDBRANCH  19  20
ENDBRANCH  18  19
ENDBRANCH   6  18
TORSDOF 4
ENDMDL
MODEL 2
REMARK VINA RESULT:    -7.046      3.650      6.616
REMARK INTER + INTRA:          -9.208
REMARK INTER:                  -8.731
REMARK INTRA:                  -0.478
REMARK UNBOUND:                -0.514
REMARK  4 active torsions:
REMARK  status: ('A' for Active; 'I' for Inactive)
REMARK    1  A    between atoms: C_7  and  C_10 
REMARK    2  A    between atoms: C_10  and  C_11 
REMARK    3  A    between atoms: C_11  and  S_25 
REMARK    4  A    between atoms: C_12  and  S_25 
ROOT
HETATM    1  C   UNL     1     -31.068   5.764  -9.046  1.00  0.00     0.048 C 
HETATM    2  C   UNL     1     -32.896   7.330  -7.985  1.00  0.00     0.018 A 
HETATM    3  C   UNL     1     -34.189   9.199  -7.370  1.00  0.00     0.084 A 
HETATM    4  C   UNL     1     -33.679   7.159  -9.158  1.00  0.00    -0.005 A 
HETATM    5  C   UNL     1     -33.414   5.991  -9.996  1.00  0.00     0.050 A 
HETATM    6  C   UNL     1     -34.238   4.412 -11.547  1.00  0.00     0.144 A 
HETATM    7  C   UNL     1     -32.036   4.108 -10.762  1.00  0.00     0.099 A 
HETATM    8  C   UNL     1     -32.183   5.291  -9.937  1.00  0.00    -0.015 A 
HETATM    9  C   UNL     1     -31.694   6.358  -7.712  1.00  0.00     0.062 C 
HETATM   10  C   UNL     1     -35.045   9.066  -8.482  1.00  0.00    -0.005 A 
HETATM   11  C   UNL     1     -34.825   8.009  -9.419  1.00  0.00     0.071 A 
HETATM   12  N   UNL     1     -33.098   3.713 -11.529  1.00  0.00    -0.346 N 
ATOM     13  HN  UNL     1     -33.018   2.869 -12.097  1.00  0.00     0.167 HD
HETATM   14  N   UNL     1     -33.140   8.343  -7.096  1.00  0.00    -0.369 N 
ATOM     15  HN  UNL     1     -32.567   8.461  -6.261  1.00  0.00     0.165 HD
HETATM   16  N   UNL     1     -34.465   5.554 -10.843  1.00  0.00    -0.336 N 
ATOM     17  HN  UNL     1     -35.343   6.069 -10.920  1.00  0.00     0.168 HD
ENDROOT
BRANCH   6  18
HETATM   18  S   UNL     1     -35.579   3.922 -12.575  1.00  0.00    -0.086 SA
BRANCH  18  19
HETATM   19  C   UNL     1     -36.444   2.576 -11.789  1.00  0.00     0.161 C 
BRANCH  19  20
HETATM   20  C   UNL     1     -35.911   1.193 -11.945  1.00  0.00     0.144 C 
HETATM   21  O   UNL     1     -34.667   1.061 -12.167  1.00  0.00    -0.296 OA
BRANCH  20  22
HETATM   22  C   UNL     1     -36.661  -0.075 -11.715  1.00  0.00     0.010 C 
HETATM   23  C   UNL     1     -37.832   0.069 -10.711  1.00  0.00     0.022 C 
HETATM   24  C   UNL     1     -35.659  -1.183 -11.179  1.00  0.00     0.022 C 
HETATM   25  C   UNL     1     -37.175  -0.472 -13.156  1.00  0.00     0.022 C 
ENDBRANCH  20  22
ENDBRANCH  19  20
ENDBRANCH  18  19
ENDBRANCH   6  18
TORSDOF 4
ENDMDL
MODEL 3
REMARK VINA RESULT:    -6.767      3.505      5.700
REMARK INTER + INTRA:          -8.864
REMARK INTER:                  -8.506
REMARK INTRA:                  -0.357
REMARK UNBOUND:                -0.514
REMARK  4 active torsions:
REMARK  status: ('A' for Active; 'I' for Inactive)
REMARK    1  A    between atoms: C_7  and  C_10 
REMARK    2  A    between atoms: C_10  and  C_11 
REMARK    3  A    between atoms: C_11  and  S_25 
REMARK    4  A    between atoms: C_12  and  S_25 
ROOT
HETATM    1  C   UNL     1     -33.724   7.903  -9.060  1.00  0.00     0.048 C 
HETATM    2  C   UNL     1     -34.837   5.889 -10.334  1.00  0.00     0.018 A 
HETATM    3  C   UNL     1     -35.758   4.498 -11.995  1.00  0.00     0.084 A 
HETATM    4  C   UNL     1     -33.537   5.393 -10.621  1.00  0.00    -0.005 A 
HETATM    5  C   UNL     1     -32.430   5.836  -9.775  1.00  0.00     0.050 A 
HETATM    6  C   UNL     1     -30.300   5.380  -8.866  1.00  0.00     0.144 A 
HETATM    7  C   UNL     1     -31.385   7.344  -8.143  1.00  0.00     0.099 A 
HETATM    8  C   UNL     1     -32.510   7.019  -8.998  1.00  0.00    -0.015 A 
HETATM    9  C   UNL     1     -35.015   6.993  -9.232  1.00  0.00     0.062 C 
HETATM   10  C   UNL     1     -34.511   3.917 -12.305  1.00  0.00    -0.005 A 
HETATM   11  C   UNL     1     -33.342   4.340 -11.600  1.00  0.00     0.071 A 
HETATM   12  N   UNL     1     -30.323   6.483  -8.109  1.00  0.00    -0.346 N 
ATOM     13  HN  UNL     1     -29.533   6.686  -7.496  1.00  0.00     0.167 HD
HETATM   14  N   UNL     1     -35.943   5.454 -11.015  1.00  0.00    -0.369 N 
ATOM     15  HN  UNL     1     -36.870   5.822 -10.805  1.00  0.00     0.165 HD
HETATM   16  N   UNL     1     -31.283   5.003  -9.728  1.00  0.00    -0.336 N 
ATOM     17  HN  UNL     1     -31.200   4.168 -10.309  1.00  0.00     0.168 HD
ENDROOT
BRANCH   6  18
HETATM   18  S   UNL     1     -28.907   4.306  -8.851  1.00  0.00    -0.086 SA
BRANCH  18  19
HETATM   19  C   UNL     1     -27.585   5.091  -7.949  1.00  0.00     0.161 C 
BRANCH  19  20
HETATM   20  C   UNL     1     -26.702   6.056  -8.664  1.00  0.00     0.144 C 
HETATM   21  O   UNL     1     -27.231   6.792  -9.554  1.00  0.00    -0.296 OA
BRANCH  20  22
HETATM   22  C   UNL     1     -25.280   6.362  -8.338  1.00  0.00     0.010 C 
HETATM   23  C   UNL     1     -25.041   7.833  -7.914  1.00  0.00     0.022 C 
HETATM   24  C   UNL     1     -24.374   6.037  -9.600  1.00  0.00     0.022 C 
HETATM   25  C   UNL     1     -24.941   5.357  -7.166  1.00  0.00     0.022 C 
ENDBRANCH  20  22
ENDBRANCH  19  20
ENDBRANCH  18  19
ENDBRANCH   6  18
TORSDOF 4
ENDMDL
MODEL 4
REMARK VINA RESULT:    -6.748      3.202      6.941
REMARK INTER + INTRA:          -8.840
REMARK INTER:                  -8.648
REMARK INTRA:                  -0.193
REMARK UNBOUND:                -0.514
REMARK  4 active torsions:
REMARK  status: ('A' for Active; 'I' for Inactive)
REMARK    1  A    between atoms: C_7  and  C_10 
REMARK    2  A    between atoms: C_10  and  C_11 
REMARK    3  A    between atoms: C_11  and  S_25 
REMARK    4  A    between atoms: C_12  and  S_25 
ROOT
HETATM    1  C   UNL     1     -31.102   5.788  -8.911  1.00  0.00     0.048 C 
HETATM    2  C   UNL     1     -32.952   7.359  -7.899  1.00  0.00     0.018 A 
HETATM    3  C   UNL     1     -34.233   9.237  -7.282  1.00  0.00     0.084 A 
HETATM    4  C   UNL     1     -33.660   7.264  -9.128  1.00  0.00    -0.005 A 
HETATM    5  C   UNL     1     -33.372   6.128 -10.001  1.00  0.00     0.050 A 
HETATM    6  C   UNL     1     -34.134   4.647 -11.675  1.00  0.00     0.144 A 
HETATM    7  C   UNL     1     -31.997   4.241 -10.762  1.00  0.00     0.099 A 
HETATM    8  C   UNL     1     -32.167   5.389  -9.895  1.00  0.00    -0.015 A 
HETATM    9  C   UNL     1     -31.798   6.340  -7.594  1.00  0.00     0.062 C 
HETATM   10  C   UNL     1     -35.016   9.180  -8.453  1.00  0.00    -0.005 A 
HETATM   11  C   UNL     1     -34.763   8.160  -9.422  1.00  0.00     0.071 A 
HETATM   12  N   UNL     1     -33.017   3.913 -11.615  1.00  0.00    -0.346 N 
ATOM     13  HN  UNL     1     -32.922   3.094 -12.216  1.00  0.00     0.167 HD
HETATM   14  N   UNL     1     -33.227   8.338  -6.981  1.00  0.00    -0.369 N 
ATOM     15  HN  UNL     1     -32.708   8.401  -6.106  1.00  0.00     0.165 HD
HETATM   16  N   UNL     1     -34.376   5.762 -10.934  1.00  0.00    -0.336 N 
ATOM     17  HN  UNL     1     -35.233   6.306 -11.044  1.00  0.00     0.168 HD
ENDROOT
BRANCH   6  18
HETATM   18  S   UNL     1     -35.416   4.245 -12.810  1.00  0.00    -0.086 SA
BRANCH  18  19
HETATM   19  C   UNL     1     -34.746   4.254 -14.461  1.00  0.00     0.161 C 
BRANCH  19  20
HETATM   20  C   UNL     1     -34.424   2.952 -15.112  1.00  0.00     0.144 C 
HETATM   21  O   UNL     1     -35.385   2.289 -15.612  1.00  0.00    -0.296 OA
BRANCH  20  22
HETATM   22  C   UNL     1     -33.061   2.410 -15.379  1.00  0.00     0.010 C 
HETATM   23  C   UNL     1     -32.317   1.942 -14.103  1.00  0.00     0.022 C 
HETATM   24  C   UNL     1     -32.190   3.523 -16.101  1.00  0.00     0.022 C 
HETATM   25  C   UNL     1     -33.324   1.210 -16.372  1.00  0.00     0.022 C 
ENDBRANCH  20  22
ENDBRANCH  19  20
ENDBRANCH  18  19
ENDBRANCH   6  18
TORSDOF 4
ENDMDL
MODEL 5
REMARK VINA RESULT:    -6.688      3.221      6.775
REMARK INTER + INTRA:          -8.766
REMARK INTER:                  -8.421
REMARK INTRA:                  -0.344
REMARK UNBOUND:                -0.514
REMARK  4 active torsions:
REMARK  status: ('A' for Active; 'I' for Inactive)
REMARK    1  A    between atoms: C_7  and  C_10 
REMARK    2  A    between atoms: C_10  and  C_11 
REMARK    3  A    between atoms: C_11  and  S_25 
REMARK    4  A    between atoms: C_12  and  S_25 
ROOT
HETATM    1  C   UNL     1     -33.071   7.393  -8.079  1.00  0.00     0.048 C 
HETATM    2  C   UNL     1     -30.714   6.332  -8.564  1.00  0.00     0.018 A 
HETATM    3  C   UNL     1     -28.770   5.007  -8.470  1.00  0.00     0.084 A 
HETATM    4  C   UNL     1     -31.354   5.359  -9.377  1.00  0.00    -0.005 A 
HETATM    5  C   UNL     1     -32.681   5.670  -9.906  1.00  0.00     0.050 A 
HETATM    6  C   UNL     1     -34.288   5.335 -11.603  1.00  0.00     0.144 A 
HETATM    7  C   UNL     1     -34.781   6.942  -9.949  1.00  0.00     0.099 A 
HETATM    8  C   UNL     1     -33.507   6.660  -9.317  1.00  0.00    -0.015 A 
HETATM    9  C   UNL     1     -31.501   7.624  -8.144  1.00  0.00     0.062 C 
HETATM   10  C   UNL     1     -29.314   4.019  -9.316  1.00  0.00    -0.005 A 
HETATM   11  C   UNL     1     -30.641   4.176  -9.822  1.00  0.00     0.071 A 
HETATM   12  N   UNL     1     -35.106   6.261 -11.091  1.00  0.00    -0.346 N 
ATOM     13  HN  UNL     1     -35.989   6.464 -11.560  1.00  0.00     0.167 HD
HETATM   14  N   UNL     1     -29.434   6.163  -8.106  1.00  0.00    -0.369 N 
ATOM     15  HN  UNL     1     -28.987   6.864  -7.517  1.00  0.00     0.165 HD
HETATM   16  N   UNL     1     -33.091   4.968 -11.068  1.00  0.00    -0.336 N 
ATOM     17  HN  UNL     1     -32.520   4.230 -11.481  1.00  0.00     0.168 HD
ENDROOT
BRANCH   6  18
HETATM   18  S   UNL     1     -34.739   4.431 -13.043  1.00  0.00    -0.086 SA
BRANCH  18  19
HETATM   19  C   UNL     1     -34.739   2.692 -12.654  1.00  0.00     0.161 C 
BRANCH  19  20
HETATM   20  C   UNL     1     -35.942   2.104 -11.998  1.00  0.00     0.144 C 
HETATM   21  O   UNL     1     -36.794   2.904 -11.501  1.00  0.00    -0.296 OA
BRANCH  20  22
HETATM   22  C   UNL     1     -36.334   0.665 -11.997  1.00  0.00     0.010 C 
HETATM   23  C   UNL     1     -37.772   0.412 -11.480  1.00  0.00     0.022 C 
HETATM   24  C   UNL     1     -35.314  -0.152 -11.096  1.00  0.00     0.022 C 
HETATM   25  C   UNL     1     -36.174   0.233 -13.509  1.00  0.00     0.022 C 
ENDBRANCH  20  22
ENDBRANCH  19  20
ENDBRANCH  18  19
ENDBRANCH   6  18
TORSDOF 4
ENDMDL
MODEL 6
REMARK VINA RESULT:    -6.686      3.169      5.862
REMARK INTER + INTRA:          -8.764
REMARK INTER:                  -8.425
REMARK INTRA:                  -0.339
REMARK UNBOUND:                -0.514
REMARK  4 active torsions:
REMARK  status: ('A' for Active; 'I' for Inactive)
REMARK    1  A    between atoms: C_7  and  C_10 
REMARK    2  A    between atoms: C_10  and  C_11 
REMARK    3  A    between atoms: C_11  and  S_25 
REMARK    4  A    between atoms: C_12  and  S_25 
ROOT
HETATM    1  C   UNL     1     -34.937   5.641 -11.216  1.00  0.00     0.048 C 
HETATM    2  C   UNL     1     -34.534   7.672  -9.595  1.00  0.00     0.018 A 
HETATM    3  C   UNL     1     -34.618   9.158  -7.770  1.00  0.00     0.084 A 
HETATM    4  C   UNL     1     -33.523   6.912  -8.945  1.00  0.00    -0.005 A 
HETATM    5  C   UNL     1     -32.919   5.802  -9.680  1.00  0.00     0.050 A 
HETATM    6  C   UNL     1     -31.040   4.413 -10.017  1.00  0.00     0.144 A 
HETATM    7  C   UNL     1     -32.860   4.146 -11.492  1.00  0.00     0.099 A 
HETATM    8  C   UNL     1     -33.565   5.199 -10.788  1.00  0.00    -0.015 A 
HETATM    9  C   UNL     1     -35.063   7.209 -10.998  1.00  0.00     0.062 C 
HETATM   10  C   UNL     1     -33.583   8.491  -7.083  1.00  0.00    -0.005 A 
HETATM   11  C   UNL     1     -32.978   7.337  -7.669  1.00  0.00     0.071 A 
HETATM   12  N   UNL     1     -31.602   3.810 -11.071  1.00  0.00    -0.346 N 
ATOM     13  HN  UNL     1     -31.084   3.086 -11.570  1.00  0.00     0.167 HD
HETATM   14  N   UNL     1     -35.085   8.784  -9.016  1.00  0.00    -0.369 N 
ATOM     15  HN  UNL     1     -35.815   9.317  -9.488  1.00  0.00     0.165 HD
HETATM   16  N   UNL     1     -31.629   5.382  -9.265  1.00  0.00    -0.336 N 
ATOM     17  HN  UNL     1     -31.168   5.786  -8.449  1.00  0.00     0.168 HD
ENDROOT
BRANCH   6  18
HETATM   18  S   UNL     1     -29.443   3.938  -9.454  1.00  0.00    -0.086 SA
BRANCH  18  19
HETATM   19  C   UNL     1     -28.752   5.271  -8.494  1.00  0.00     0.161 C 
BRANCH  19  20
HETATM   20  C   UNL     1     -27.464   5.880  -8.934  1.00  0.00     0.144 C 
HETATM   21  O   UNL     1     -27.517   6.839  -9.765  1.00  0.00    -0.296 OA
BRANCH  20  22
HETATM   22  C   UNL     1     -26.111   5.582  -8.381  1.00  0.00     0.010 C 
HETATM   23  C   UNL     1     -26.138   4.686  -7.119  1.00  0.00     0.022 C 
HETATM   24  C   UNL     1     -25.381   6.946  -8.027  1.00  0.00     0.022 C 
HETATM   25  C   UNL     1     -25.365   4.874  -9.581  1.00  0.00     0.022 C 
ENDBRANCH  20  22
ENDBRANCH  19  20
ENDBRANCH  18  19
ENDBRANCH   6  18
TORSDOF 4
ENDMDL
MODEL 7
REMARK VINA RESULT:    -6.620      2.243      5.429
REMARK INTER + INTRA:          -8.683
REMARK INTER:                  -7.979
REMARK INTRA:                  -0.703
REMARK UNBOUND:                -0.514
REMARK  4 active torsions:
REMARK  status: ('A' for Active; 'I' for Inactive)
REMARK    1  A    between atoms: C_7  and  C_10 
REMARK    2  A    between atoms: C_10  and  C_11 
REMARK    3  A    between atoms: C_11  and  S_25 
REMARK    4  A    between atoms: C_12  and  S_25 
ROOT
HETATM    1  C   UNL     1     -34.325   7.980  -9.208  1.00  0.00     0.048 C 
HETATM    2  C   UNL     1     -34.946   5.726 -10.415  1.00  0.00     0.018 A 
HETATM    3  C   UNL     1     -35.457   4.098 -12.037  1.00  0.00     0.084 A 
HETATM    4  C   UNL     1     -33.558   5.465 -10.571  1.00  0.00    -0.005 A 
HETATM    5  C   UNL     1     -32.624   6.152  -9.681  1.00  0.00     0.050 A 
HETATM    6  C   UNL     1     -30.531   6.149  -8.589  1.00  0.00     0.144 A 
HETATM    7  C   UNL     1     -32.010   7.916  -8.086  1.00  0.00     0.099 A 
HETATM    8  C   UNL     1     -32.981   7.340  -8.996  1.00  0.00    -0.015 A 
HETATM    9  C   UNL     1     -35.412   6.838  -9.409  1.00  0.00     0.062 C 
HETATM   10  C   UNL     1     -34.105   3.742 -12.213  1.00  0.00    -0.005 A 
HETATM   11  C   UNL     1     -33.095   4.413 -11.457  1.00  0.00     0.071 A 
HETATM   12  N   UNL     1     -30.816   7.270  -7.915  1.00  0.00    -0.346 N 
ATOM     13  HN  UNL     1     -30.131   7.649  -7.262  1.00  0.00     0.167 HD
HETATM   14  N   UNL     1     -35.894   5.056 -11.142  1.00  0.00    -0.369 N 
ATOM     15  HN  UNL     1     -36.886   5.258 -11.027  1.00  0.00     0.165 HD
HETATM   16  N   UNL     1     -31.354   5.550  -9.492  1.00  0.00    -0.336 N 
ATOM     17  HN  UNL     1     -31.073   4.714 -10.005  1.00  0.00     0.168 HD
ENDROOT
BRANCH   6  18
HETATM   18  S   UNL     1     -28.973   5.355  -8.398  1.00  0.00    -0.086 SA
BRANCH  18  19
HETATM   19  C   UNL     1     -29.101   3.684  -9.006  1.00  0.00     0.161 C 
BRANCH  19  20
HETATM   20  C   UNL     1     -28.864   3.429 -10.456  1.00  0.00     0.144 C 
HETATM   21  O   UNL     1     -27.976   4.124 -11.040  1.00  0.00    -0.296 OA
BRANCH  20  22
HETATM   22  C   UNL     1     -29.457   2.328 -11.268  1.00  0.00     0.010 C 
HETATM   23  C   UNL     1     -29.941   2.777 -12.668  1.00  0.00     0.022 C 
HETATM   24  C   UNL     1     -30.682   1.700 -10.478  1.00  0.00     0.022 C 
HETATM   25  C   UNL     1     -28.288   1.268 -11.369  1.00  0.00     0.022 C 
ENDBRANCH  20  22
ENDBRANCH  19  20
ENDBRANCH  18  19
ENDBRANCH   6  18
TORSDOF 4
ENDMDL
MODEL 8
REMARK VINA RESULT:    -6.611      2.765      5.650
REMARK INTER + INTRA:          -8.672
REMARK INTER:                  -8.063
REMARK INTRA:                  -0.609
REMARK UNBOUND:                -0.514
REMARK  4 active torsions:
REMARK  status: ('A' for Active; 'I' for Inactive)
REMARK    1  A    between atoms: C_7  and  C_10 
REMARK    2  A    between atoms: C_10  and  C_11 
REMARK    3  A    between atoms: C_11  and  S_25 
REMARK    4  A    between atoms: C_12  and  S_25 
ROOT
HETATM    1  C   UNL     1     -35.237   5.526 -11.441  1.00  0.00     0.048 C 
HETATM    2  C   UNL     1     -34.410   7.361  -9.748  1.00  0.00     0.018 A 
HETATM    3  C   UNL     1     -34.099   8.688  -7.828  1.00  0.00     0.084 A 
HETATM    4  C   UNL     1     -33.418   6.450  -9.294  1.00  0.00    -0.005 A 
HETATM    5  C   UNL     1     -33.038   5.351 -10.180  1.00  0.00     0.050 A 
HETATM    6  C   UNL     1     -31.383   3.810 -10.861  1.00  0.00     0.144 A 
HETATM    7  C   UNL     1     -33.392   3.856 -12.096  1.00  0.00     0.099 A 
HETATM    8  C   UNL     1     -33.881   4.912 -11.232  1.00  0.00    -0.015 A 
HETATM    9  C   UNL     1     -35.159   7.075 -11.098  1.00  0.00     0.062 C 
HETATM   10  C   UNL     1     -33.068   7.863  -7.334  1.00  0.00    -0.005 A 
HETATM   11  C   UNL     1     -32.673   6.707  -8.076  1.00  0.00     0.071 A 
HETATM   12  N   UNL     1     -32.137   3.359 -11.871  1.00  0.00    -0.346 N 
ATOM     13  HN  UNL     1     -31.769   2.632 -12.484  1.00  0.00     0.167 HD
HETATM   14  N   UNL     1     -34.757   8.470  -9.024  1.00  0.00    -0.369 N 
ATOM     15  HN  UNL     1     -35.475   9.113  -9.355  1.00  0.00     0.165 HD
HETATM   16  N   UNL     1     -31.761   4.768  -9.971  1.00  0.00    -0.336 N 
ATOM     17  HN  UNL     1     -31.160   5.052  -9.197  1.00  0.00     0.168 HD
ENDROOT
BRANCH   6  18
HETATM   18  S   UNL     1     -29.791   3.130 -10.551  1.00  0.00    -0.086 SA
BRANCH  18  19
HETATM   19  C   UNL     1     -29.214   3.714  -8.969  1.00  0.00     0.161 C 
BRANCH  19  20
HETATM   20  C   UNL     1     -28.358   4.935  -8.924  1.00  0.00     0.144 C 
HETATM   21  O   UNL     1     -28.940   6.064  -8.945  1.00  0.00    -0.296 OA
BRANCH  20  22
HETATM   22  C   UNL     1     -26.885   4.974  -8.701  1.00  0.00     0.010 C 
HETATM   23  C   UNL     1     -26.445   5.997  -7.624  1.00  0.00     0.022 C 
HETATM   24  C   UNL     1     -26.159   5.325 -10.069  1.00  0.00     0.022 C 
HETATM   25  C   UNL     1     -26.532   3.493  -8.275  1.00  0.00     0.022 C 
ENDBRANCH  20  22
ENDBRANCH  19  20
ENDBRANCH  18  19
ENDBRANCH   6  18
TORSDOF 4
ENDMDL
MODEL 9
REMARK VINA RESULT:    -6.579      3.002      7.204
REMARK INTER + INTRA:          -8.631
REMARK INTER:                  -8.250
REMARK INTRA:                  -0.381
REMARK UNBOUND:                -0.514
REMARK  4 active torsions:
REMARK  status: ('A' for Active; 'I' for Inactive)
REMARK    1  A    between atoms: C_7  and  C_10 
REMARK    2  A    between atoms: C_10  and  C_11 
REMARK    3  A    between atoms: C_11  and  S_25 
REMARK    4  A    between atoms: C_12  and  S_25 
ROOT
HETATM    1  C   UNL     1     -33.040   7.427  -8.035  1.00  0.00     0.048 C 
HETATM    2  C   UNL     1     -30.723   6.322  -8.608  1.00  0.00     0.018 A 
HETATM    3  C   UNL     1     -28.805   4.956  -8.590  1.00  0.00     0.084 A 
HETATM    4  C   UNL     1     -31.411   5.367  -9.404  1.00  0.00    -0.005 A 
HETATM    5  C   UNL     1     -32.749   5.709  -9.884  1.00  0.00     0.050 A 
HETATM    6  C   UNL     1     -34.420   5.418 -11.526  1.00  0.00     0.144 A 
HETATM    7  C   UNL     1     -34.822   7.024  -9.847  1.00  0.00     0.099 A 
HETATM    8  C   UNL     1     -33.533   6.712  -9.262  1.00  0.00    -0.015 A 
HETATM    9  C   UNL     1     -31.468   7.627  -8.154  1.00  0.00     0.062 C 
HETATM   10  C   UNL     1     -29.398   3.985  -9.423  1.00  0.00    -0.005 A 
HETATM   11  C   UNL     1     -30.738   4.173  -9.881  1.00  0.00     0.071 A 
HETATM   12  N   UNL     1     -35.201   6.358 -10.981  1.00  0.00    -0.346 N 
ATOM     13  HN  UNL     1     -36.095   6.582 -11.417  1.00  0.00     0.167 HD
HETATM   14  N   UNL     1     -29.432   6.123  -8.196  1.00  0.00    -0.369 N 
ATOM     15  HN  UNL     1     -28.951   6.811  -7.618  1.00  0.00     0.165 HD
HETATM   16  N   UNL     1     -33.214   5.023 -11.036  1.00  0.00    -0.336 N 
ATOM     17  HN  UNL     1     -32.673   4.277 -11.473  1.00  0.00     0.168 HD
ENDROOT
BRANCH   6  18
HETATM   18  S   UNL     1     -34.940   4.534 -12.955  1.00  0.00    -0.086 SA
BRANCH  18  19
HETATM   19  C   UNL     1     -33.691   3.333 -13.374  1.00  0.00     0.161 C 
BRANCH  19  20
HETATM   20  C   UNL     1     -33.277   3.196 -14.800  1.00  0.00     0.144 C 
HETATM   21  O   UNL     1     -34.022   3.722 -15.684  1.00  0.00    -0.296 OA
BRANCH  20  22
HETATM   22  C   UNL     1     -31.988   2.633 -15.296  1.00  0.00     0.010 C 
HETATM   23  C   UNL     1     -31.319   3.489 -16.399  1.00  0.00     0.022 C 
HETATM   24  C   UNL     1     -32.242   1.172 -15.863  1.00  0.00     0.022 C 
HETATM   25  C   UNL     1     -31.091   2.552 -13.997  1.00  0.00     0.022 C 
ENDBRANCH  20  22
ENDBRANCH  19  20
ENDBRANCH  18  19
ENDBRANCH   6  18
TORSDOF 4
ENDMDL
MODEL 10
REMARK VINA RESULT:    -6.531      3.325      6.749
REMARK INTER + INTRA:          -8.573
REMARK INTER:                  -7.910
REMARK INTRA:                  -0.663
REMARK UNBOUND:                -0.514
REMARK  4 active torsions:
REMARK  status: ('A' for Active; 'I' for Inactive)
REMARK    1  A    between atoms: C_7  and  C_10 
REMARK    2  A    between atoms: C_10  and  C_11 
REMARK    3  A    between atoms: C_11  and  S_25 
REMARK    4  A    between atoms: C_12  and  S_25 
ROOT
HETATM    1  C   UNL     1     -35.196   6.691  -9.719  1.00  0.00     0.048 C 
HETATM    2  C   UNL     1     -32.610   6.547  -9.261  1.00  0.00     0.018 A 
HETATM    3  C   UNL     1     -30.502   6.029  -8.349  1.00  0.00     0.084 A 
HETATM    4  C   UNL     1     -32.565   5.375 -10.063  1.00  0.00    -0.005 A 
HETATM    5  C   UNL     1     -33.645   5.158 -11.024  1.00  0.00     0.050 A 
HETATM    6  C   UNL     1     -34.348   4.190 -13.059  1.00  0.00     0.144 A 
HETATM    7  C   UNL     1     -35.890   5.571 -11.930  1.00  0.00     0.099 A 
HETATM    8  C   UNL     1     -34.902   5.800 -10.894  1.00  0.00    -0.015 A 
HETATM    9  C   UNL     1     -33.872   7.478  -9.327  1.00  0.00     0.062 C 
HETATM   10  C   UNL     1     -30.356   4.877  -9.148  1.00  0.00    -0.005 A 
HETATM   11  C   UNL     1     -31.394   4.518 -10.063  1.00  0.00     0.071 A 
HETATM   12  N   UNL     1     -35.550   4.773 -12.988  1.00  0.00    -0.346 N 
ATOM     13  HN  UNL     1     -36.227   4.620 -13.737  1.00  0.00     0.167 HD
HETATM   14  N   UNL     1     -31.592   6.875  -8.405  1.00  0.00    -0.369 N 
ATOM     15  HN  UNL     1     -31.639   7.715  -7.829  1.00  0.00     0.165 HD
HETATM   16  N   UNL     1     -33.366   4.308 -12.125  1.00  0.00    -0.336 N 
ATOM     17  HN  UNL     1     -32.478   3.813 -12.212  1.00  0.00     0.168 HD
ENDROOT
BRANCH   6  18
HETATM   18  S   UNL     1     -33.941   3.127 -14.400  1.00  0.00    -0.086 SA
BRANCH  18  19
HETATM   19  C   UNL     1     -34.772   1.567 -14.170  1.00  0.00     0.161 C 
BRANCH  19  20
HETATM   20  C   UNL     1     -34.925   1.032 -12.787  1.00  0.00     0.144 C 
HETATM   21  O   UNL     1     -33.910   1.069 -12.025  1.00  0.00    -0.296 OA
BRANCH  20  22
HETATM   22  C   UNL     1     -36.197   0.595 -12.144  1.00  0.00     0.010 C 
HETATM   23  C   UNL     1     -37.092   1.767 -11.671  1.00  0.00     0.022 C 
HETATM   24  C   UNL     1     -35.860  -0.329 -10.898  1.00  0.00     0.022 C 
HETATM   25  C   UNL     1     -36.907  -0.262 -13.266  1.00  0.00     0.022 C 
ENDBRANCH  20  22
ENDBRANCH  19  20
ENDBRANCH  18  19
ENDBRANCH   6  18
TORSDOF 4
ENDMDL
MODEL 11
REMARK VINA RESULT:    -6.293      2.677      5.792
REMARK INTER + INTRA:          -8.279
REMARK INTER:                  -7.648
REMARK INTRA:                  -0.630
REMARK UNBOUND:                -0.514
REMARK  4 active torsions:
REMARK  status: ('A' for Active; 'I' for Inactive)
REMARK    1  A    between atoms: C_7  and  C_10 
REMARK    2  A    between atoms: C_10  and  C_11 
REMARK    3  A    between atoms: C_11  and  S_25 
REMARK    4  A    between atoms: C_12  and  S_25 
ROOT
HETATM    1  C   UNL     1     -35.341   5.270 -11.519  1.00  0.00     0.048 C 
HETATM    2  C   UNL     1     -34.270   7.084  -9.943  1.00  0.00     0.018 A 
HETATM    3  C   UNL     1     -33.685   8.394  -8.076  1.00  0.00     0.084 A 
HETATM    4  C   UNL     1     -33.235   6.160  -9.635  1.00  0.00    -0.005 A 
HETATM    5  C   UNL     1     -32.992   5.064 -10.571  1.00  0.00     0.050 A 
HETATM    6  C   UNL     1     -31.463   3.512 -11.481  1.00  0.00     0.144 A 
HETATM    7  C   UNL     1     -33.620   3.587 -12.430  1.00  0.00     0.099 A 
HETATM    8  C   UNL     1     -33.975   4.641 -11.501  1.00  0.00    -0.015 A 
HETATM    9  C   UNL     1     -35.199   6.816 -11.180  1.00  0.00     0.062 C 
HETATM   10  C   UNL     1     -32.605   7.555  -7.732  1.00  0.00    -0.005 A 
HETATM   11  C   UNL     1     -32.328   6.400  -8.528  1.00  0.00     0.071 A 
HETATM   12  N   UNL     1     -32.352   3.076 -12.381  1.00  0.00    -0.346 N 
ATOM     13  HN  UNL     1     -32.079   2.349 -13.043  1.00  0.00     0.167 HD
HETATM   14  N   UNL     1     -34.502   8.191  -9.172  1.00  0.00    -0.369 N 
ATOM     15  HN  UNL     1     -35.252   8.844  -9.398  1.00  0.00     0.165 HD
HETATM   16  N   UNL     1     -31.705   4.467 -10.542  1.00  0.00    -0.336 N 
ATOM     17  HN  UNL     1     -31.001   4.738  -9.856  1.00  0.00     0.168 HD
ENDROOT
BRANCH   6  18
HETATM   18  S   UNL     1     -29.851   2.813 -11.396  1.00  0.00    -0.086 SA
BRANCH  18  19
HETATM   19  C   UNL     1     -29.543   2.281  -9.723  1.00  0.00     0.161 C 
BRANCH  19  20
HETATM   20  C   UNL     1     -28.787   3.185  -8.810  1.00  0.00     0.144 C 
HETATM   21  O   UNL     1     -29.300   4.315  -8.540  1.00  0.00    -0.296 OA
BRANCH  20  22
HETATM   22  C   UNL     1     -27.551   2.841  -8.049  1.00  0.00     0.010 C 
HETATM   23  C   UNL     1     -26.874   4.061  -7.377  1.00  0.00     0.022 C 
HETATM   24  C   UNL     1     -26.510   2.151  -9.029  1.00  0.00     0.022 C 
HETATM   25  C   UNL     1     -28.052   1.792  -6.979  1.00  0.00     0.022 C 
ENDBRANCH  20  22
ENDBRANCH  19  20
ENDBRANCH  18  19
ENDBRANCH   6  18
TORSDOF 4
ENDMDL
MODEL 12
REMARK VINA RESULT:    -6.155      3.544      6.129
REMARK INTER + INTRA:          -8.108
REMARK INTER:                  -7.584
REMARK INTRA:                  -0.524
REMARK UNBOUND:                -0.514
REMARK  4 active torsions:
REMARK  status: ('A' for Active; 'I' for Inactive)
REMARK    1  A    between atoms: C_7  and  C_10 
REMARK    2  A    between atoms: C_10  and  C_11 
REMARK    3  A    between atoms: C_11  and  S_25 
REMARK    4  A    between atoms: C_12  and  S_25 
ROOT
HETATM    1  C   UNL     1     -33.382   4.340 -11.149  1.00  0.00     0.048 C 
HETATM    2  C   UNL     1     -34.140   6.573  -9.983  1.00  0.00     0.018 A 
HETATM    3  C   UNL     1     -35.191   8.147  -8.582  1.00  0.00     0.084 A 
HETATM    4  C   UNL     1     -33.115   6.380  -9.018  1.00  0.00    -0.005 A 
HETATM    5  C   UNL     1     -31.994   5.510  -9.371  1.00  0.00     0.050 A 
HETATM    6  C   UNL     1     -29.721   4.952  -9.063  1.00  0.00     0.144 A 
HETATM    7  C   UNL     1     -30.908   3.774 -10.726  1.00  0.00     0.099 A 
HETATM    8  C   UNL     1     -32.091   4.548 -10.407  1.00  0.00    -0.015 A 
HETATM    9  C   UNL     1     -34.111   5.742 -11.315  1.00  0.00     0.062 C 
HETATM   10  C   UNL     1     -34.186   8.053  -7.598  1.00  0.00    -0.005 A 
HETATM   11  C   UNL     1     -33.085   7.165  -7.798  1.00  0.00     0.071 A 
HETATM   12  N   UNL     1     -29.756   4.031 -10.033  1.00  0.00    -0.346 N 
ATOM     13  HN  UNL     1     -28.909   3.510 -10.261  1.00  0.00     0.167 HD
HETATM   14  N   UNL     1     -35.176   7.444  -9.772  1.00  0.00    -0.369 N 
ATOM     15  HN  UNL     1     -35.910   7.569 -10.468  1.00  0.00     0.165 HD
HETATM   16  N   UNL     1     -30.781   5.703  -8.661  1.00  0.00    -0.336 N 
ATOM     17  HN  UNL     1     -30.708   6.369  -7.891  1.00  0.00     0.168 HD
ENDROOT
BRANCH   6  18
HETATM   18  S   UNL     1     -28.247   5.239  -8.147  1.00  0.00    -0.086 SA
BRANCH  18  19
HETATM   19  C   UNL     1     -27.101   6.142  -9.169  1.00  0.00     0.161 C 
BRANCH  19  20
HETATM   20  C   UNL     1     -26.350   5.407 -10.227  1.00  0.00     0.144 C 
HETATM   21  O   UNL     1     -26.990   5.046 -11.263  1.00  0.00    -0.296 OA
BRANCH  20  22
HETATM   22  C   UNL     1     -24.877   5.181 -10.270  1.00  0.00     0.010 C 
HETATM   23  C   UNL     1     -24.246   5.452 -11.658  1.00  0.00     0.022 C 
HETATM   24  C   UNL     1     -24.567   3.682  -9.850  1.00  0.00     0.022 C 
HETATM   25  C   UNL     1     -24.315   6.169  -9.173  1.00  0.00     0.022 C 
ENDBRANCH  20  22
ENDBRANCH  19  20
ENDBRANCH  18  19
ENDBRANCH   6  18
TORSDOF 4
ENDMDL
MODEL 13
REMARK VINA RESULT:    -6.112      3.031      5.774
REMARK INTER + INTRA:          -8.055
REMARK INTER:                  -7.779
REMARK INTRA:                  -0.276
REMARK UNBOUND:                -0.514
REMARK  4 active torsions:
REMARK  status: ('A' for Active; 'I' for Inactive)
REMARK    1  A    between atoms: C_7  and  C_10 
REMARK    2  A    between atoms: C_10  and  C_11 
REMARK    3  A    between atoms: C_11  and  S_25 
REMARK    4  A    between atoms: C_12  and  S_25 
ROOT
HETATM    1  C   UNL     1     -33.991   7.904  -9.179  1.00  0.00     0.048 C 
HETATM    2  C   UNL     1     -34.781   5.735 -10.440  1.00  0.00     0.018 A 
HETATM    3  C   UNL     1     -35.423   4.195 -12.102  1.00  0.00     0.084 A 
HETATM    4  C   UNL     1     -33.417   5.381 -10.620  1.00  0.00    -0.005 A 
HETATM    5  C   UNL     1     -32.428   5.974  -9.722  1.00  0.00     0.050 A 
HETATM    6  C   UNL     1     -30.330   5.792  -8.655  1.00  0.00     0.144 A 
HETATM    7  C   UNL     1     -31.675   7.644  -8.086  1.00  0.00     0.099 A 
HETATM    8  C   UNL     1     -32.693   7.165  -9.000  1.00  0.00    -0.015 A 
HETATM    9  C   UNL     1     -35.157   6.848  -9.399  1.00  0.00     0.062 C 
HETATM   10  C   UNL     1     -34.100   3.749 -12.303  1.00  0.00    -0.005 A 
HETATM   11  C   UNL     1     -33.038   4.324 -11.540  1.00  0.00     0.071 A 
HETATM   12  N   UNL     1     -30.529   6.910  -7.946  1.00  0.00    -0.346 N 
ATOM     13  HN  UNL     1     -29.812   7.221  -7.290  1.00  0.00     0.167 HD
HETATM   14  N   UNL     1     -35.781   5.155 -11.175  1.00  0.00    -0.369 N 
ATOM     15  HN  UNL     1     -36.756   5.423 -11.043  1.00  0.00     0.165 HD
HETATM   16  N   UNL     1     -31.202   5.279  -9.564  1.00  0.00    -0.336 N 
ATOM     17  HN  UNL     1     -30.986   4.440 -10.103  1.00  0.00     0.168 HD
ENDROOT
BRANCH   6  18
HETATM   18  S   UNL     1     -28.831   4.884  -8.503  1.00  0.00    -0.086 SA
BRANCH  18  19
HETATM   19  C   UNL     1     -29.203   3.143  -8.586  1.00  0.00     0.161 C 
BRANCH  19  20
HETATM   20  C   UNL     1     -28.091   2.164  -8.420  1.00  0.00     0.144 C 
HETATM   21  O   UNL     1     -27.179   2.151  -9.303  1.00  0.00    -0.296 OA
BRANCH  20  22
HETATM   22  C   UNL     1     -27.852   1.291  -7.234  1.00  0.00     0.010 C 
HETATM   23  C   UNL     1     -29.142   0.928  -6.458  1.00  0.00     0.022 C 
HETATM   24  C   UNL     1     -26.846   2.020  -6.246  1.00  0.00     0.022 C 
HETATM   25  C   UNL     1     -27.162   0.009  -7.848  1.00  0.00     0.022 C 
ENDBRANCH  20  22
ENDBRANCH  19  20
ENDBRANCH  18  19
ENDBRANCH   6  18
TORSDOF 4
ENDMDL
MODEL 14
REMARK VINA RESULT:    -6.033      3.365      6.887
REMARK INTER + INTRA:          -7.958
REMARK INTER:                  -7.619
REMARK INTRA:                  -0.339
REMARK UNBOUND:                -0.514
REMARK  4 active torsions:
REMARK  status: ('A' for Active; 'I' for Inactive)
REMARK    1  A    between atoms: C_7  and  C_10 
REMARK    2  A    between atoms: C_10  and  C_11 
REMARK    3  A    between atoms: C_11  and  S_25 
REMARK    4  A    between atoms: C_12  and  S_25 
ROOT
HETATM    1  C   UNL     1     -35.273   4.944 -11.582  1.00  0.00     0.048 C 
HETATM    2  C   UNL     1     -34.191   6.799 -10.064  1.00  0.00     0.018 A 
HETATM    3  C   UNL     1     -33.555   8.130  -8.228  1.00  0.00     0.084 A 
HETATM    4  C   UNL     1     -33.102   5.920  -9.821  1.00  0.00    -0.005 A 
HETATM    5  C   UNL     1     -32.866   4.837 -10.774  1.00  0.00     0.050 A 
HETATM    6  C   UNL     1     -31.328   3.354 -11.779  1.00  0.00     0.144 A 
HETATM    7  C   UNL     1     -33.539   3.338 -12.600  1.00  0.00     0.099 A 
HETATM    8  C   UNL     1     -33.884   4.375 -11.647  1.00  0.00    -0.015 A 
HETATM    9  C   UNL     1     -35.179   6.494 -11.245  1.00  0.00     0.062 C 
HETATM   10  C   UNL     1     -32.422   7.337  -7.952  1.00  0.00    -0.005 A 
HETATM   11  C   UNL     1     -32.143   6.197  -8.768  1.00  0.00     0.071 A 
HETATM   12  N   UNL     1     -32.249   2.883 -12.628  1.00  0.00    -0.346 N 
ATOM     13  HN  UNL     1     -31.985   2.169 -13.308  1.00  0.00     0.167 HD
HETATM   14  N   UNL     1     -34.425   7.894  -9.276  1.00  0.00    -0.369 N 
ATOM     15  HN  UNL     1     -35.215   8.514  -9.455  1.00  0.00     0.165 HD
HETATM   16  N   UNL     1     -31.556   4.296 -10.823  1.00  0.00    -0.336 N 
ATOM     17  HN  UNL     1     -30.825   4.596 -10.178  1.00  0.00     0.168 HD
ENDROOT
BRANCH   6  18
HETATM   18  S   UNL     1     -29.686   2.725 -11.791  1.00  0.00    -0.086 SA
BRANCH  18  19
HETATM   19  C   UNL     1     -29.239   2.315 -13.467  1.00  0.00     0.161 C 
BRANCH  19  20
HETATM   20  C   UNL     1     -28.848   3.415 -14.395  1.00  0.00     0.144 C 
HETATM   21  O   UNL     1     -28.075   4.318 -13.947  1.00  0.00    -0.296 OA
BRANCH  20  22
HETATM   22  C   UNL     1     -29.147   3.489 -15.854  1.00  0.00     0.010 C 
HETATM   23  C   UNL     1     -30.661   3.473 -16.181  1.00  0.00     0.022 C 
HETATM   24  C   UNL     1     -28.450   2.268 -16.591  1.00  0.00     0.022 C 
HETATM   25  C   UNL     1     -28.469   4.842 -16.306  1.00  0.00     0.022 C 
ENDBRANCH  20  22
ENDBRANCH  19  20
ENDBRANCH  18  19
ENDBRANCH   6  18
TORSDOF 4
ENDMDL
MODEL 15
REMARK VINA RESULT:    -6.015      2.497      5.127
REMARK INTER + INTRA:          -7.936
REMARK INTER:                  -7.629
REMARK INTRA:                  -0.307
REMARK UNBOUND:                -0.514
REMARK  4 active torsions:
REMARK  status: ('A' for Active; 'I' for Inactive)
REMARK    1  A    between atoms: C_7  and  C_10 
REMARK    2  A    between atoms: C_10  and  C_11 
REMARK    3  A    between atoms: C_11  and  S_25 
REMARK    4  A    between atoms: C_12  and  S_25 
ROOT
HETATM    1  C   UNL     1     -35.794   6.182 -11.521  1.00  0.00     0.048 C 
HETATM    2  C   UNL     1     -34.934   3.753 -12.048  1.00  0.00     0.018 A 
HETATM    3  C   UNL     1     -34.039   1.854 -13.115  1.00  0.00     0.084 A 
HETATM    4  C   UNL     1     -33.631   4.164 -11.658  1.00  0.00    -0.005 A 
HETATM    5  C   UNL     1     -33.509   5.339 -10.796  1.00  0.00     0.050 A 
HETATM    6  C   UNL     1     -32.266   6.499  -9.158  1.00  0.00     0.144 A 
HETATM    7  C   UNL     1     -34.359   7.399  -9.766  1.00  0.00     0.099 A 
HETATM    8  C   UNL     1     -34.545   6.301 -10.693  1.00  0.00    -0.015 A 
HETATM    9  C   UNL     1     -36.168   4.645 -11.669  1.00  0.00     0.062 C 
HETATM   10  C   UNL     1     -32.720   2.164 -12.723  1.00  0.00    -0.005 A 
HETATM   11  C   UNL     1     -32.472   3.341 -11.950  1.00  0.00     0.071 A 
HETATM   12  N   UNL     1     -33.212   7.435  -9.020  1.00  0.00    -0.346 N 
ATOM     13  HN  UNL     1     -33.077   8.189  -8.346  1.00  0.00     0.167 HD
HETATM   14  N   UNL     1     -35.144   2.611 -12.775  1.00  0.00    -0.369 N 
ATOM     15  HN  UNL     1     -36.082   2.330 -13.055  1.00  0.00     0.165 HD
HETATM   16  N   UNL     1     -32.324   5.451 -10.025  1.00  0.00    -0.336 N 
ATOM     17  HN  UNL     1     -31.558   4.784 -10.115  1.00  0.00     0.168 HD
ENDROOT
BRANCH   6  18
HETATM   18  S   UNL     1     -30.774   6.582  -8.230  1.00  0.00    -0.086 SA
BRANCH  18  19
HETATM   19  C   UNL     1     -29.765   5.170  -8.635  1.00  0.00     0.161 C 
BRANCH  19  20
HETATM   20  C   UNL     1     -28.306   5.373  -8.862  1.00  0.00     0.144 C 
HETATM   21  O   UNL     1     -27.934   6.483  -9.353  1.00  0.00    -0.296 OA
BRANCH  20  22
HETATM   22  C   UNL     1     -27.209   4.461  -8.428  1.00  0.00     0.010 C 
HETATM   23  C   UNL     1     -26.204   5.118  -7.449  1.00  0.00     0.022 C 
HETATM   24  C   UNL     1     -26.419   3.950  -9.707  1.00  0.00     0.022 C 
HETATM   25  C   UNL     1     -27.972   3.252  -7.755  1.00  0.00     0.022 C 
ENDBRANCH  20  22
ENDBRANCH  19  20
ENDBRANCH  18  19
ENDBRANCH   6  18
TORSDOF 4
ENDMDL
MODEL 16
REMARK VINA RESULT:    -5.871      3.181      7.091
REMARK INTER + INTRA:          -7.757
REMARK INTER:                  -6.958
REMARK INTRA:                  -0.799
REMARK UNBOUND:                -0.514
REMARK  4 active torsions:
REMARK  status: ('A' for Active; 'I' for Inactive)
REMARK    1  A    between atoms: C_7  and  C_10 
REMARK    2  A    between atoms: C_10  and  C_11 
REMARK    3  A    between atoms: C_11  and  S_25 
REMARK    4  A    between atoms: C_12  and  S_25 
ROOT
HETATM    1  C   UNL     1     -34.930   6.852  -9.456  1.00  0.00     0.048 C 
HETATM    2  C   UNL     1     -32.360   6.331  -9.253  1.00  0.00     0.018 A 
HETATM    3  C   UNL     1     -30.277   5.453  -8.592  1.00  0.00     0.084 A 
HETATM    4  C   UNL     1     -32.539   5.255 -10.164  1.00  0.00    -0.005 A 
HETATM    5  C   UNL     1     -33.711   5.281 -11.037  1.00  0.00     0.050 A 
HETATM    6  C   UNL     1     -34.697   4.633 -13.082  1.00  0.00     0.144 A 
HETATM    7  C   UNL     1     -35.942   6.072 -11.689  1.00  0.00     0.099 A 
HETATM    8  C   UNL     1     -34.854   6.061 -10.732  1.00  0.00    -0.015 A 
HETATM    9  C   UNL     1     -33.485   7.417  -9.114  1.00  0.00     0.062 C 
HETATM   10  C   UNL     1     -30.354   4.384  -9.507  1.00  0.00    -0.005 A 
HETATM   11  C   UNL     1     -31.500   4.260 -10.353  1.00  0.00     0.071 A 
HETATM   12  N   UNL     1     -35.799   5.354 -12.845  1.00  0.00    -0.346 N 
ATOM     13  HN  UNL     1     -36.547   5.369 -13.540  1.00  0.00     0.167 HD
HETATM   14  N   UNL     1     -31.243   6.434  -8.467  1.00  0.00    -0.369 N 
ATOM     15  HN  UNL     1     -31.129   7.206  -7.812  1.00  0.00     0.165 HD
HETATM   16  N   UNL     1     -33.638   4.524 -12.235  1.00  0.00    -0.336 N 
ATOM     17  HN  UNL     1     -32.835   3.932 -12.450  1.00  0.00     0.168 HD
ENDROOT
BRANCH   6  18
HETATM   18  S   UNL     1     -34.545   3.675 -14.549  1.00  0.00    -0.086 SA
BRANCH  18  19
HETATM   19  C   UNL     1     -34.287   1.970 -14.099  1.00  0.00     0.161 C 
BRANCH  19  20
HETATM   20  C   UNL     1     -32.957   1.351 -14.366  1.00  0.00     0.144 C 
HETATM   21  O   UNL     1     -32.659   1.092 -15.573  1.00  0.00    -0.296 OA
BRANCH  20  22
HETATM   22  C   UNL     1     -31.865   1.140 -13.374  1.00  0.00     0.010 C 
HETATM   23  C   UNL     1     -31.050  -0.156 -13.611  1.00  0.00     0.022 C 
HETATM   24  C   UNL     1     -32.488   1.094 -11.914  1.00  0.00     0.022 C 
HETATM   25  C   UNL     1     -30.965   2.430 -13.529  1.00  0.00     0.022 C 
ENDBRANCH  20  22
ENDBRANCH  19  20
ENDBRANCH  18  19
ENDBRANCH   6  18
TORSDOF 4
ENDMDL
MODEL 17
REMARK VINA RESULT:    -5.865      2.933      6.259
REMARK INTER + INTRA:          -7.751
REMARK INTER:                  -7.259
REMARK INTRA:                  -0.492
REMARK UNBOUND:                -0.514
REMARK  4 active torsions:
REMARK  status: ('A' for Active; 'I' for Inactive)
REMARK    1  A    between atoms: C_7  and  C_10 
REMARK    2  A    between atoms: C_10  and  C_11 
REMARK    3  A    between atoms: C_11  and  S_25 
REMARK    4  A    between atoms: C_12  and  S_25 
ROOT
HETATM    1  C   UNL     1     -31.158   7.271  -8.158  1.00  0.00     0.048 C 
HETATM    2  C   UNL     1     -33.394   6.353  -9.196  1.00  0.00     0.018 A 
HETATM    3  C   UNL     1     -35.280   6.020 -10.566  1.00  0.00     0.084 A 
HETATM    4  C   UNL     1     -32.620   5.504 -10.033  1.00  0.00    -0.005 A 
HETATM    5  C   UNL     1     -31.253   5.195  -9.621  1.00  0.00     0.050 A 
HETATM    6  C   UNL     1     -29.438   3.686  -9.681  1.00  0.00     0.144 A 
HETATM    7  C   UNL     1     -29.216   5.590  -8.307  1.00  0.00     0.099 A 
HETATM    8  C   UNL     1     -30.545   6.011  -8.703  1.00  0.00    -0.015 A 
HETATM    9  C   UNL     1     -32.717   7.039  -7.957  1.00  0.00     0.062 C 
HETATM   10  C   UNL     1     -34.597   5.125 -11.415  1.00  0.00    -0.005 A 
HETATM   11  C   UNL     1     -33.226   4.818 -11.159  1.00  0.00     0.071 A 
HETATM   12  N   UNL     1     -28.726   4.417  -8.815  1.00  0.00    -0.346 N 
ATOM     13  HN  UNL     1     -27.801   4.096  -8.529  1.00  0.00     0.167 HD
HETATM   14  N   UNL     1     -34.712   6.618  -9.457  1.00  0.00    -0.369 N 
ATOM     15  HN  UNL     1     -35.256   7.235  -8.854  1.00  0.00     0.165 HD
HETATM   16  N   UNL     1     -30.675   4.010 -10.145  1.00  0.00    -0.336 N 
ATOM     17  HN  UNL     1     -31.160   3.433 -10.832  1.00  0.00     0.168 HD
ENDROOT
BRANCH   6  18
HETATM   18  S   UNL     1     -28.778   2.206 -10.366  1.00  0.00    -0.086 SA
BRANCH  18  19
HETATM   19  C   UNL     1     -27.621   2.635 -11.653  1.00  0.00     0.161 C 
BRANCH  19  20
HETATM   20  C   UNL     1     -28.131   3.312 -12.879  1.00  0.00     0.144 C 
HETATM   21  O   UNL     1     -27.757   4.506 -13.093  1.00  0.00    -0.296 OA
BRANCH  20  22
HETATM   22  C   UNL     1     -28.919   2.679 -13.975  1.00  0.00     0.010 C 
HETATM   23  C   UNL     1     -28.812   3.423 -15.329  1.00  0.00     0.022 C 
HETATM   24  C   UNL     1     -30.447   2.612 -13.547  1.00  0.00     0.022 C 
HETATM   25  C   UNL     1     -28.327   1.217 -14.066  1.00  0.00     0.022 C 
ENDBRANCH  20  22
ENDBRANCH  19  20
ENDBRANCH  18  19
ENDBRANCH   6  18
TORSDOF 4
ENDMDL
MODEL 18
REMARK VINA RESULT:    -5.845      2.761      5.904
REMARK INTER + INTRA:          -7.726
REMARK INTER:                  -7.364
REMARK INTRA:                  -0.362
REMARK UNBOUND:                -0.514
REMARK  4 active torsions:
REMARK  status: ('A' for Active; 'I' for Inactive)
REMARK    1  A    between atoms: C_7  and  C_10 
REMARK    2  A    between atoms: C_10  and  C_11 
REMARK    3  A    between atoms: C_11  and  S_25 
REMARK    4  A    between atoms: C_12  and  S_25 
ROOT
HETATM    1  C   UNL     1     -35.526   5.313 -11.831  1.00  0.00     0.048 C 
HETATM    2  C   UNL     1     -34.396   7.007 -10.165  1.00  0.00     0.018 A 
HETATM    3  C   UNL     1     -33.774   8.203  -8.235  1.00  0.00     0.084 A 
HETATM    4  C   UNL     1     -33.401   6.029  -9.896  1.00  0.00    -0.005 A 
HETATM    5  C   UNL     1     -33.194   4.970 -10.881  1.00  0.00     0.050 A 
HETATM    6  C   UNL     1     -31.720   3.404 -11.856  1.00  0.00     0.144 A 
HETATM    7  C   UNL     1     -33.866   3.608 -12.812  1.00  0.00     0.099 A 
HETATM    8  C   UNL     1     -34.186   4.630 -11.835  1.00  0.00    -0.015 A 
HETATM    9  C   UNL     1     -35.327   6.834 -11.418  1.00  0.00     0.062 C 
HETATM   10  C   UNL     1     -32.730   7.307  -7.926  1.00  0.00    -0.005 A 
HETATM   11  C   UNL     1     -32.493   6.181  -8.774  1.00  0.00     0.071 A 
HETATM   12  N   UNL     1     -32.619   3.046 -12.781  1.00  0.00    -0.346 N 
ATOM     13  HN  UNL     1     -32.370   2.341 -13.475  1.00  0.00     0.167 HD
HETATM   14  N   UNL     1     -34.591   8.085  -9.343  1.00  0.00    -0.369 N 
ATOM     15  HN  UNL     1     -35.314   8.776  -9.542  1.00  0.00     0.165 HD
HETATM   16  N   UNL     1     -31.931   4.322 -10.875  1.00  0.00    -0.336 N 
ATOM     17  HN  UNL     1     -31.222   4.533 -10.173  1.00  0.00     0.168 HD
ENDROOT
BRANCH   6  18
HETATM   18  S   UNL     1     -30.137   2.639 -11.796  1.00  0.00    -0.086 SA
BRANCH  18  19
HETATM   19  C   UNL     1     -29.428   2.910 -10.183  1.00  0.00     0.161 C 
BRANCH  19  20
HETATM   20  C   UNL     1     -29.466   1.802  -9.187  1.00  0.00     0.144 C 
HETATM   21  O   UNL     1     -30.321   0.879  -9.364  1.00  0.00    -0.296 OA
BRANCH  20  22
HETATM   22  C   UNL     1     -28.497   1.577  -8.077  1.00  0.00     0.010 C 
HETATM   23  C   UNL     1     -27.405   0.529  -8.406  1.00  0.00     0.022 C 
HETATM   24  C   UNL     1     -29.286   1.107  -6.783  1.00  0.00     0.022 C 
HETATM   25  C   UNL     1     -27.873   3.008  -7.831  1.00  0.00     0.022 C 
ENDBRANCH  20  22
ENDBRANCH  19  20
ENDBRANCH  18  19
ENDBRANCH   6  18
TORSDOF 4
ENDMDL
MODEL 19
REMARK VINA RESULT:    -5.800      4.060      6.881
REMARK INTER + INTRA:          -7.671
REMARK INTER:                  -7.468
REMARK INTRA:                  -0.202
REMARK UNBOUND:                -0.514
REMARK  4 active torsions:
REMARK  status: ('A' for Active; 'I' for Inactive)
REMARK    1  A    between atoms: C_7  and  C_10 
REMARK    2  A    between atoms: C_10  and  C_11 
REMARK    3  A    between atoms: C_11  and  S_25 
REMARK    4  A    between atoms: C_12  and  S_25 
ROOT
HETATM    1  C   UNL     1     -26.564   2.692  -8.052  1.00  0.00     0.048 C 
HETATM    2  C   UNL     1     -25.275   4.437  -6.564  1.00  0.00     0.018 A 
HETATM    3  C   UNL     1     -23.732   6.030  -5.774  1.00  0.00     0.084 A 
HETATM    4  C   UNL     1     -26.060   5.467  -7.148  1.00  0.00    -0.005 A 
HETATM    5  C   UNL     1     -27.334   5.097  -7.762  1.00  0.00     0.050 A 
HETATM    6  C   UNL     1     -29.522   5.738  -8.372  1.00  0.00     0.144 A 
HETATM    7  C   UNL     1     -28.920   3.484  -8.718  1.00  0.00     0.099 A 
HETATM    8  C   UNL     1     -27.606   3.769  -8.175  1.00  0.00    -0.015 A 
HETATM    9  C   UNL     1     -25.723   2.941  -6.727  1.00  0.00     0.062 C 
HETATM   10  C   UNL     1     -24.480   7.114  -6.278  1.00  0.00    -0.005 A 
HETATM   11  C   UNL     1     -25.702   6.863  -6.976  1.00  0.00     0.071 A 
HETATM   12  N   UNL     1     -29.834   4.501  -8.776  1.00  0.00    -0.346 N 
ATOM     13  HN  UNL     1     -30.771   4.312  -9.135  1.00  0.00     0.167 HD
HETATM   14  N   UNL     1     -24.117   4.708  -5.885  1.00  0.00    -0.369 N 
ATOM     15  HN  UNL     1     -23.557   3.959  -5.477  1.00  0.00     0.165 HD
HETATM   16  N   UNL     1     -28.310   6.118  -7.885  1.00  0.00    -0.336 N 
ATOM     17  HN  UNL     1     -28.114   7.085  -7.623  1.00  0.00     0.168 HD
ENDROOT
BRANCH   6  18
HETATM   18  S   UNL     1     -30.690   7.048  -8.498  1.00  0.00    -0.086 SA
BRANCH  18  19
HETATM   19  C   UNL     1     -32.251   6.491  -7.844  1.00  0.00     0.161 C 
BRANCH  19  20
HETATM   20  C   UNL     1     -33.510   7.012  -8.451  1.00  0.00     0.144 C 
HETATM   21  O   UNL     1     -33.813   6.611  -9.617  1.00  0.00    -0.296 OA
BRANCH  20  22
HETATM   22  C   UNL     1     -34.541   7.844  -7.768  1.00  0.00     0.010 C 
HETATM   23  C   UNL     1     -34.682   9.269  -8.357  1.00  0.00     0.022 C 
HETATM   24  C   UNL     1     -34.181   7.959  -6.226  1.00  0.00     0.022 C 
HETATM   25  C   UNL     1     -35.871   7.008  -7.943  1.00  0.00     0.022 C 
ENDBRANCH  20  22
ENDBRANCH  19  20
ENDBRANCH  18  19
ENDBRANCH   6  18
TORSDOF 4
ENDMDL
MODEL 20
REMARK VINA RESULT:    -5.784      3.070      6.708
REMARK INTER + INTRA:          -7.651
REMARK INTER:                  -6.780
REMARK INTRA:                  -0.871
REMARK UNBOUND:                -0.514
REMARK  4 active torsions:
REMARK  status: ('A' for Active; 'I' for Inactive)
REMARK    1  A    between atoms: C_7  and  C_10 
REMARK    2  A    between atoms: C_10  and  C_11 
REMARK    3  A    between atoms: C_11  and  S_25 
REMARK    4  A    between atoms: C_12  and  S_25 
ROOT
HETATM    1  C   UNL     1     -35.747   5.853 -10.687  1.00  0.00     0.048 C 
HETATM    2  C   UNL     1     -33.450   6.569  -9.625  1.00  0.00     0.018 A 
HETATM    3  C   UNL     1     -31.610   6.819  -8.176  1.00  0.00     0.084 A 
HETATM    4  C   UNL     1     -32.861   5.407 -10.193  1.00  0.00    -0.005 A 
HETATM    5  C   UNL     1     -33.534   4.781 -11.330  1.00  0.00     0.050 A 
HETATM    6  C   UNL     1     -33.357   3.474 -13.288  1.00  0.00     0.144 A 
HETATM    7  C   UNL     1     -35.472   4.390 -12.786  1.00  0.00     0.099 A 
HETATM    8  C   UNL     1     -34.907   5.004 -11.601  1.00  0.00    -0.015 A 
HETATM    9  C   UNL     1     -34.857   7.046 -10.131  1.00  0.00     0.062 C 
HETATM   10  C   UNL     1     -30.935   5.708  -8.722  1.00  0.00    -0.005 A 
HETATM   11  C   UNL     1     -31.541   4.965  -9.782  1.00  0.00     0.071 A 
HETATM   12  N   UNL     1     -34.648   3.653 -13.593  1.00  0.00    -0.346 N 
ATOM     13  HN  UNL     1     -35.025   3.233 -14.443  1.00  0.00     0.167 HD
HETATM   14  N   UNL     1     -32.838   7.271  -8.621  1.00  0.00    -0.369 N 
ATOM     15  HN  UNL     1     -33.274   8.099  -8.215  1.00  0.00     0.165 HD
HETATM   16  N   UNL     1     -32.739   3.973 -12.183  1.00  0.00    -0.336 N 
ATOM     17  HN  UNL     1     -31.759   3.778 -11.980  1.00  0.00     0.168 HD
ENDROOT
BRANCH   6  18
HETATM   18  S   UNL     1     -32.319   2.485 -14.306  1.00  0.00    -0.086 SA
BRANCH  18  19
HETATM   19  C   UNL     1     -32.510   0.776 -13.834  1.00  0.00     0.161 C 
BRANCH  19  20
HETATM   20  C   UNL     1     -33.176   0.461 -12.538  1.00  0.00     0.144 C 
HETATM   21  O   UNL     1     -32.537   0.713 -11.470  1.00  0.00    -0.296 OA
BRANCH  20  22
HETATM   22  C   UNL     1     -34.588   0.017 -12.355  1.00  0.00     0.010 C 
HETATM   23  C   UNL     1     -35.399   0.910 -11.384  1.00  0.00     0.022 C 
HETATM   24  C   UNL     1     -34.599  -1.474 -11.811  1.00  0.00     0.022 C 
HETATM   25  C   UNL     1     -35.185   0.057 -13.817  1.00  0.00     0.022 C 
ENDBRANCH  20  22
ENDBRANCH  19  20
ENDBRANCH  18  19
ENDBRANCH   6  18
TORSDOF 4
ENDMDL
