REMARK  6 active torsions:
REMARK  status: ('A' for Active; 'I' for Inactive)
REMARK    1  A    between atoms: C_1  and  C_16 
REMARK    2  A    between atoms: C_2  and  C_15 
REMARK    3  A    between atoms: C_10  and  C_12 
REMARK    4  A    between atoms: C_11  and  N_25 
REMARK    5  A    between atoms: C_13  and  C_15 
REMARK    6  A    between atoms: C_16  and  O_26 
ROOT
HETATM    1  C   UNL     1       3.002  -2.920  -1.740  1.00  0.00     0.177 C 
HETATM    2  C   UNL     1       0.365  -2.280   0.574  1.00  0.00     0.083 A 
HETATM    3  C   UNL     1      -0.014  -1.391  -0.438  1.00  0.00    -0.006 A 
HETATM    4  C   UNL     1       0.960  -1.528  -1.408  1.00  0.00     0.119 A 
HETATM    5  N   UNL     1       1.852  -2.440  -0.986  1.00  0.00    -0.307 N 
HETATM    6  N   UNL     1       1.501  -2.907   0.200  1.00  0.00    -0.297 N 
ATOM      7  HN  UNL     1       2.000  -3.616   0.738  1.00  0.00     0.187 HD
ENDROOT
BRANCH   2   8
HETATM    8  C   UNL     1      -0.307  -2.556   1.866  1.00  0.00     0.081 A 
HETATM    9  C   UNL     1       0.340  -3.313   2.854  1.00  0.00     0.075 A 
HETATM   10  C   UNL     1      -0.327  -3.558   4.055  1.00  0.00     0.121 A 
HETATM   11  N   UNL     1      -1.579  -3.070   4.248  1.00  0.00    -0.181 N 
HETATM   12 CL   UNL     1       0.445  -4.494   5.320  1.00  0.00    -0.064 Cl
HETATM   13  C   UNL     1      -2.199  -2.343   3.282  1.00  0.00     0.677 A 
ATOM     14  HN  UNL     1      -2.060  -3.251   5.129  1.00  0.00     0.185 HD
HETATM   15  N   UNL     1      -1.563  -2.097   2.107  1.00  0.00    -0.190 N 
ATOM     16  HN  UNL     1      -2.040  -1.554   1.388  1.00  0.00     0.184 HD
BRANCH  13  17
HETATM   17  N   UNL     1      -3.514  -1.838   3.502  1.00  0.00    -0.234 N 
HETATM   18  H   UNL     1      -3.992  -1.274   2.764  1.00  0.00     0.174 HD
HETATM   19  H   UNL     1      -4.009  -2.026   4.402  1.00  0.00     0.174 HD
ENDBRANCH  13  17
ENDBRANCH   2   8
BRANCH   3  20
HETATM   20  C   UNL     1      -1.145  -0.395  -0.481  1.00  0.00     0.082 C 
BRANCH  20  21
HETATM   21  C   UNL     1      -0.676   0.982  -0.052  1.00  0.00    -0.037 A 
HETATM   22  C   UNL     1      -0.619   2.098  -0.934  1.00  0.00     0.046 A 
HETATM   23  C   UNL     1      -0.263   3.360  -0.421  1.00  0.00     0.018 A 
HETATM   24  C   UNL     1       0.057   3.519   0.927  1.00  0.00     0.001 A 
HETATM   25  C   UNL     1       0.018   2.426   1.787  1.00  0.00     0.001 A 
HETATM   26  C   UNL     1      -0.350   1.170   1.305  1.00  0.00     0.008 A 
BRANCH  22  27
HETATM   27  C   UNL     1      -0.920   2.005  -2.380  1.00  0.00     0.293 C 
HETATM   28  O   UNL     1      -1.574   2.928  -2.940  1.00  0.00    -0.259 OA
BRANCH  27  29
HETATM   29  O   UNL     1      -0.433   0.935  -3.135  1.00  0.00    -0.323 OA
HETATM   30  C   UNL     1      -0.685   0.798  -4.527  1.00  0.00     0.213 C 
ENDBRANCH  27  29
ENDBRANCH  22  27
ENDBRANCH  20  21
ENDBRANCH   3  20
TORSDOF 6
