REMARK  5 active torsions:
REMARK  status: ('A' for Active; 'I' for Inactive)
REMARK    1  A    between atoms: C_1  and  C_16 
REMARK    2  A    between atoms: C_2  and  C_15 
REMARK    3  A    between atoms: C_10  and  C_12 
REMARK    4  A    between atoms: C_13  and  C_15 
REMARK    5  A    between atoms: C_16  and  O_26 
ROOT
HETATM    1  C   UNL     1     -29.161  -2.235  -1.008  1.00  0.00     0.177 C 
HETATM    2  C   UNL     1     -29.058   1.299  -0.664  1.00  0.00     0.083 A 
HETATM    3  C   UNL     1     -28.347   0.947   0.484  1.00  0.00    -0.007 A 
HETATM    4  C   UNL     1     -28.274  -0.410   0.472  1.00  0.00     0.119 A 
HETATM    5  N   UNL     1     -28.930  -0.845  -0.627  1.00  0.00    -0.307 N 
HETATM    6  N   UNL     1     -29.439   0.224  -1.314  1.00  0.00    -0.297 N 
ATOM      7  HN  UNL     1     -30.003   0.192  -2.163  1.00  0.00     0.187 HD
ENDROOT
BRANCH   3   8
HETATM    8  C   UNL     1     -27.695   1.885   1.527  1.00  0.00     0.077 C 
BRANCH   8   9
HETATM    9  C   UNL     1     -28.606   2.072   2.712  1.00  0.00    -0.063 A 
HETATM   10  C   UNL     1     -29.725   3.043   2.615  1.00  0.00     0.035 A 
HETATM   11  C   UNL     1     -30.652   3.197   3.778  1.00  0.00     0.005 A 
HETATM   12  C   UNL     1     -30.492   2.383   4.999  1.00  0.00     0.005 A 
HETATM   13  C   UNL     1     -29.414   1.403   5.105  1.00  0.00     0.045 A 
HETATM   14  C   UNL     1     -28.474   1.253   3.949  1.00  0.00     0.020 A 
BRANCH  14  15
HETATM   15  C   UNL     1     -27.358   0.292   4.160  1.00  0.00     0.289 C 
HETATM   16  O   UNL     1     -26.894  -0.239   3.257  1.00  0.00    -0.260 OA
BRANCH  15  17
HETATM   17  O   UNL     1     -26.894   0.146   5.489  1.00  0.00    -0.323 OA
HETATM   18  C   UNL     1     -25.922  -0.851   5.687  1.00  0.00     0.213 C 
ENDBRANCH  15  17
ENDBRANCH  14  15
ENDBRANCH   8   9
ENDBRANCH   3   8
BRANCH   2  19
HETATM   19  C   UNL     1     -29.450   2.660  -1.159  1.00  0.00     0.066 A 
HETATM   20  N   UNL     1     -29.148   3.818  -0.456  1.00  0.00    -0.328 N 
HETATM   21  C   UNL     1     -29.577   5.091  -0.914  1.00  0.00     0.194 A 
ATOM     22  HN  UNL     1     -28.607   3.753   0.406  1.00  0.00     0.168 HD
HETATM   23  N   UNL     1     -30.333   5.200  -2.088  1.00  0.00    -0.321 N 
HETATM   24  N   UNL     1     -29.302   6.292  -0.234  1.00  0.00    -0.063 NA
HETATM   25  C   UNL     1     -30.652   4.029  -2.710  1.00  0.00     0.107 A 
ATOM     26  HN  UNL     1     -30.628   6.104  -2.457  1.00  0.00     0.169 HD
HETATM   27  C   UNL     1     -30.238   2.758  -2.336  1.00  0.00     0.074 A 
HETATM   28 CL   UNL     1     -31.533   4.138  -4.216  1.00  0.00    -0.064 Cl
ENDBRANCH   2  19
TORSDOF 5
