REMARK  10 active torsions:
REMARK  status: ('A' for Active; 'I' for Inactive)
REMARK    1  A    between atoms: C_1  and  O_19 
REMARK    2  A    between atoms: C_2  and  C_15 
REMARK    3  A    between atoms: C_3  and  C_16 
REMARK    4  A    between atoms: N_6  and  C_7 
REMARK    5  A    between atoms: N_6  and  C_15 
REMARK    6  A    between atoms: C_8  and  O_9 
REMARK    7  A    between atoms: C_16  and  O_23 
REMARK    8  A    between atoms: O_20  and  P_24 
REMARK    9  A    between atoms: O_21  and  P_24 
REMARK   10  A    between atoms: O_23  and  P_24 
ROOT
HETATM    1  C   UNL     1      -1.755   0.792  -0.921  1.00  0.00     0.096 A 
HETATM    2  C   UNL     1      -0.977   0.271   0.136  1.00  0.00     0.013 A 
HETATM    3  C   UNL     1      -1.585  -0.599   1.078  1.00  0.00    -0.008 A 
HETATM    4  C   UNL     1      -2.949  -0.897   0.937  1.00  0.00     0.098 A 
HETATM    5  C   UNL     1      -3.119   0.450  -1.013  1.00  0.00     0.039 A 
HETATM    6  C   UNL     1      -3.992   0.974  -2.113  1.00  0.00     0.071 C 
HETATM    7  N   UNL     1      -3.667  -0.377  -0.087  1.00  0.00    -0.367 N 
ATOM      8  HN  UNL     1      -4.656  -0.616  -0.165  1.00  0.00     0.165 HD
ENDROOT
BRANCH   2   9
HETATM    9  C   UNL     1       0.498   0.631   0.201  1.00  0.00     0.281 C 
BRANCH   9  10
HETATM   10  N   UNL     1       1.276  -0.180  -0.748  1.00  0.00    -0.035 N 
HETATM   11  H   UNL     1       0.876  -0.090  -1.711  1.00  0.00     0.284 HD
HETATM   12  H   UNL     1       1.245  -1.189  -0.474  1.00  0.00     0.284 HD
BRANCH  10  13
HETATM   13  C   UNL     1       2.641   0.267  -0.779  1.00  0.00     0.208 A 
HETATM   14  C   UNL     1       3.680  -0.105   0.046  1.00  0.00     0.197 A 
HETATM   15  N   UNL     1       4.769   0.626  -0.254  1.00  0.00    -0.238 N 
HETATM   16  O   UNL     1       4.423   1.436  -1.217  1.00  0.00    -0.246 OA
ATOM     17  HN  UNL     1       5.687   0.560   0.186  1.00  0.00     0.197 HD
HETATM   18  C   UNL     1       3.164   1.272  -1.563  1.00  0.00     0.209 A 
BRANCH  14  19
HETATM   19  O   UNL     1       3.653  -1.071   1.046  1.00  0.00    -0.343 OA
HETATM   20  H   UNL     1       2.817  -1.605   1.242  1.00  0.00     0.219 HD
ENDBRANCH  14  19
ENDBRANCH  10  13
ENDBRANCH   9  10
ENDBRANCH   2   9
BRANCH   1  21
HETATM   21  O   UNL     1      -1.157   1.642  -1.858  1.00  0.00    -0.358 OA
HETATM   22  H   UNL     1      -1.659   2.047  -2.638  1.00  0.00     0.217 HD
ENDBRANCH   1  21
BRANCH   3  23
HETATM   23  C   UNL     1      -0.836  -1.204   2.247  1.00  0.00     0.221 C 
BRANCH  23  24
HETATM   24  O   UNL     1       0.273  -1.965   1.819  1.00  0.00    -0.292 OA
BRANCH  24  25
HETATM   25  P   UNL     1      -0.235  -3.532   1.365  1.00  0.00     0.391 P 
HETATM   26  O   UNL     1      -0.888  -4.232   2.536  1.00  0.00    -0.632 OA
BRANCH  25  27
HETATM   27  O   UNL     1      -1.325  -3.455   0.073  1.00  0.00    -0.307 OA
HETATM   28  H   UNL     1      -0.835  -2.979  -0.644  1.00  0.00     0.222 HD
ENDBRANCH  25  27
BRANCH  25  29
HETATM   29  O   UNL     1       1.121  -4.423   0.885  1.00  0.00    -0.307 OA
HETATM   30  H   UNL     1       1.544  -3.875   0.176  1.00  0.00     0.222 HD
ENDBRANCH  25  29
ENDBRANCH  24  25
ENDBRANCH  23  24
ENDBRANCH   3  23
TORSDOF 10
