MODEL 1
REMARK VINA RESULT:   -11.804      0.000      0.000
REMARK INTER + INTRA:         -23.731
REMARK INTER:                 -21.811
REMARK INTRA:                  -1.920
REMARK UNBOUND:                -1.920
REMARK  17 active torsions:
REMARK  status: ('A' for Active; 'I' for Inactive)
REMARK    1  A    between atoms: C_1  and  C_19 
REMARK    2  A    between atoms: C_2  and  N_32 
REMARK    3  A    between atoms: C_5  and  O_35 
REMARK    4  A    between atoms: C_7  and  O_37 
REMARK    5  A    between atoms: C_8  and  O_41 
REMARK    6  A    between atoms: C_10  and  O_42 
REMARK    7  A    between atoms: C_11  and  O_45 
REMARK    8  A    between atoms: C_13  and  C_16 
REMARK    9  A    between atoms: C_14  and  C_17 
REMARK   10  A    between atoms: C_16  and  O_49 
REMARK   11  A    between atoms: C_17  and  O_50 
REMARK   12  A    between atoms: C_18  and  N_27 
REMARK   13  A    between atoms: C_19  and  O_41 
REMARK   14  A    between atoms: O_44  and  P_52 
REMARK   15  A    between atoms: O_44  and  P_53 
REMARK   16  A    between atoms: O_49  and  P_52 
REMARK   17  A    between atoms: O_50  and  P_53 
ROOT
HETATM    1  O   UNL     1      -1.348   7.825  10.960  1.00  0.00    -0.624 OA
HETATM    2  O   UNL     1      -3.535   9.176  10.716  1.00  0.00    -0.624 OA
HETATM    3  P   UNL     1      -2.791   7.881  10.670  1.00  0.00     0.417 P 
ENDROOT
BRANCH   3   4
HETATM    4  O   UNL     1      -3.577   6.983  11.721  1.00  0.00    -0.287 OA
BRANCH   4   5
HETATM    5  C   UNL     1      -2.924   5.977  12.506  1.00  0.00     0.216 C 
BRANCH   5   6
HETATM    6  C   UNL     1      -3.800   5.699  13.727  1.00  0.00     0.180 C 
HETATM    7  O   UNL     1      -3.087   4.763  14.583  1.00  0.00    -0.353 OA
HETATM    8  C   UNL     1      -3.324   5.183  15.971  1.00  0.00     0.262 C 
HETATM    9  C   UNL     1      -3.218   6.685  15.841  1.00  0.00     0.198 C 
HETATM   10  C   UNL     1      -4.011   6.956  14.542  1.00  0.00     0.182 C 
BRANCH   8  11
HETATM   11  N   UNL     1      -2.029   4.565  16.513  1.00  0.00    -0.297 N 
HETATM   12  C   UNL     1      -1.936   3.248  16.766  1.00  0.00     0.142 A 
HETATM   13  N   UNL     1      -2.904   2.297  16.734  1.00  0.00    -0.336 N 
HETATM   14  C   UNL     1      -0.683   2.959  17.137  1.00  0.00     0.122 A 
HETATM   15  C   UNL     1      -2.606   1.006  17.105  1.00  0.00     0.183 A 
ATOM     16  HN  UNL     1      -3.849   2.539  16.437  1.00  0.00     0.168 HD
HETATM   17  N   UNL     1      -1.296   0.706  17.468  1.00  0.00    -0.337 N 
HETATM   18  C   UNL     1      -0.394   1.680  17.486  1.00  0.00     0.131 A 
ATOM     19  HN  UNL     1      -1.032  -0.248  17.715  1.00  0.00     0.168 HD
HETATM   20  N   UNL     1       0.023   4.129  17.069  1.00  0.00    -0.346 N 
HETATM   21  C   UNL     1      -0.808   5.096  16.647  1.00  0.00     0.188 A 
ATOM     22  HN  UNL     1       1.011   4.247  17.299  1.00  0.00     0.167 HD
BRANCH  18  23
HETATM   23  N   UNL     1       0.835   1.371  17.843  1.00  0.00    -0.383 N 
ATOM     24  HN2 UNL     1       0.990   0.577  18.464  1.00  0.00     0.157 HD
ATOM     25  HN1 UNL     1       1.593   1.956  17.491  1.00  0.00     0.157 HD
ENDBRANCH  18  23
ENDBRANCH   8  11
BRANCH   9  26
HETATM   26  O   UNL     1      -3.879   7.237  16.967  1.00  0.00    -0.388 OA
ATOM     27  HO  UNL     1      -3.333   7.187  17.742  1.00  0.00     0.210 HD
ENDBRANCH   9  26
BRANCH  10  28
HETATM   28  O   UNL     1      -5.401   7.056  14.797  1.00  0.00    -0.390 OA
ATOM     29  HO  UNL     1      -5.660   6.501  15.522  1.00  0.00     0.210 HD
ENDBRANCH  10  28
ENDBRANCH   5   6
ENDBRANCH   4   5
ENDBRANCH   3   4
BRANCH   3  30
HETATM   30  O   UNL     1      -2.883   7.112   9.237  1.00  0.00    -0.180 OA
BRANCH  30  31
HETATM   31  P   UNL     1      -3.992   6.104   8.779  1.00  0.00     0.417 P 
HETATM   32  O   UNL     1      -3.640   4.746   9.371  1.00  0.00    -0.624 OA
HETATM   33  O   UNL     1      -5.322   6.702   9.062  1.00  0.00    -0.624 OA
BRANCH  31  34
HETATM   34  O   UNL     1      -3.648   5.979   7.200  1.00  0.00    -0.287 OA
BRANCH  34  35
HETATM   35  C   UNL     1      -4.514   6.486   6.157  1.00  0.00     0.216 C 
BRANCH  35  36
HETATM   36  C   UNL     1      -3.616   6.921   4.995  1.00  0.00     0.180 C 
HETATM   37  O   UNL     1      -3.167   8.219   5.359  1.00  0.00    -0.349 OA
HETATM   38  C   UNL     1      -1.966   8.446   4.479  1.00  0.00     0.289 C 
HETATM   39  C   UNL     1      -1.333   7.071   4.225  1.00  0.00     0.218 C 
HETATM   40  C   UNL     1      -2.306   6.143   5.024  1.00  0.00     0.183 C 
BRANCH  38  41
HETATM   41  O   UNL     1      -1.003   9.303   5.061  1.00  0.00    -0.368 OA
ATOM     42  HO  UNL     1      -1.118  10.181   4.720  1.00  0.00     0.212 HD
ENDBRANCH  38  41
BRANCH  39  43
HETATM   43  O   UNL     1      -1.360   6.870   2.819  1.00  0.00    -0.304 OA
BRANCH  43  44
HETATM   44  C   UNL     1      -0.158   6.486   2.310  1.00  0.00     0.293 C 
HETATM   45  O   UNL     1       0.825   6.283   3.010  1.00  0.00    -0.259 OA
BRANCH  44  46
HETATM   46  C   UNL     1      -0.093   6.232   0.941  1.00  0.00     0.039 A 
HETATM   47  C   UNL     1       0.818   5.307   0.470  1.00  0.00     0.017 A 
HETATM   48  C   UNL     1       0.896   5.034  -0.891  1.00  0.00     0.001 A 
HETATM   49  C   UNL     1       0.078   5.706  -1.765  1.00  0.00     0.000 A 
HETATM   50  C   UNL     1      -0.856   6.666  -1.310  1.00  0.00     0.001 A 
HETATM   51  C   UNL     1      -0.929   6.927   0.072  1.00  0.00     0.017 A 
ENDBRANCH  44  46
ENDBRANCH  43  44
ENDBRANCH  39  43
BRANCH  40  52
HETATM   52  O   UNL     1      -2.417   4.922   4.360  1.00  0.00    -0.390 OA
ATOM     53  HO  UNL     1      -1.895   4.951   3.567  1.00  0.00     0.210 HD
ENDBRANCH  40  52
ENDBRANCH  35  36
ENDBRANCH  34  35
ENDBRANCH  31  34
ENDBRANCH  30  31
ENDBRANCH   3  30
TORSDOF 17
ENDMDL
MODEL 2
REMARK VINA RESULT:   -11.772      1.126      1.376
REMARK INTER + INTRA:         -23.671
REMARK INTER:                 -21.658
REMARK INTRA:                  -2.013
REMARK UNBOUND:                -1.920
REMARK  17 active torsions:
REMARK  status: ('A' for Active; 'I' for Inactive)
REMARK    1  A    between atoms: C_1  and  C_19 
REMARK    2  A    between atoms: C_2  and  N_32 
REMARK    3  A    between atoms: C_5  and  O_35 
REMARK    4  A    between atoms: C_7  and  O_37 
REMARK    5  A    between atoms: C_8  and  O_41 
REMARK    6  A    between atoms: C_10  and  O_42 
REMARK    7  A    between atoms: C_11  and  O_45 
REMARK    8  A    between atoms: C_13  and  C_16 
REMARK    9  A    between atoms: C_14  and  C_17 
REMARK   10  A    between atoms: C_16  and  O_49 
REMARK   11  A    between atoms: C_17  and  O_50 
REMARK   12  A    between atoms: C_18  and  N_27 
REMARK   13  A    between atoms: C_19  and  O_41 
REMARK   14  A    between atoms: O_44  and  P_52 
REMARK   15  A    between atoms: O_44  and  P_53 
REMARK   16  A    between atoms: O_49  and  P_52 
REMARK   17  A    between atoms: O_50  and  P_53 
ROOT
HETATM    1  O   UNL     1      -1.420   7.279  10.438  1.00  0.00    -0.624 OA
HETATM    2  O   UNL     1      -3.549   8.667   9.982  1.00  0.00    -0.624 OA
HETATM    3  P   UNL     1      -2.865   7.350  10.160  1.00  0.00     0.417 P 
ENDROOT
BRANCH   3   4
HETATM    4  O   UNL     1      -3.668   6.694  11.366  1.00  0.00    -0.287 OA
BRANCH   4   5
HETATM    5  C   UNL     1      -3.042   5.823  12.316  1.00  0.00     0.216 C 
BRANCH   5   6
HETATM    6  C   UNL     1      -3.695   6.071  13.676  1.00  0.00     0.180 C 
HETATM    7  O   UNL     1      -3.274   5.007  14.573  1.00  0.00    -0.353 OA
HETATM    8  C   UNL     1      -3.038   5.621  15.887  1.00  0.00     0.262 C 
HETATM    9  C   UNL     1      -2.355   6.908  15.488  1.00  0.00     0.198 C 
HETATM   10  C   UNL     1      -3.207   7.369  14.282  1.00  0.00     0.182 C 
BRANCH   8  11
HETATM   11  N   UNL     1      -2.031   4.558  16.345  1.00  0.00    -0.297 N 
HETATM   12  C   UNL     1      -2.434   3.340  16.746  1.00  0.00     0.142 A 
HETATM   13  N   UNL     1      -3.693   2.876  16.948  1.00  0.00    -0.336 N 
HETATM   14  C   UNL     1      -1.360   2.583  17.000  1.00  0.00     0.122 A 
HETATM   15  C   UNL     1      -3.882   1.604  17.438  1.00  0.00     0.183 A 
ATOM     16  HN  UNL     1      -4.497   3.468  16.737  1.00  0.00     0.168 HD
HETATM   17  N   UNL     1      -2.762   0.813  17.677  1.00  0.00    -0.337 N 
HETATM   18  C   UNL     1      -1.556   1.325  17.468  1.00  0.00     0.131 A 
ATOM     19  HN  UNL     1      -2.867  -0.146  18.008  1.00  0.00     0.168 HD
HETATM   20  N   UNL     1      -0.265   3.349  16.705  1.00  0.00    -0.346 N 
HETATM   21  C   UNL     1      -0.695   4.544  16.267  1.00  0.00     0.188 A 
ATOM     22  HN  UNL     1       0.710   3.062  16.800  1.00  0.00     0.167 HD
BRANCH  18  23
HETATM   23  N   UNL     1      -0.514   0.559  17.713  1.00  0.00    -0.383 N 
ATOM     24  HN2 UNL     1      -0.414   0.130  18.633  1.00  0.00     0.157 HD
ATOM     25  HN1 UNL     1       0.171   0.435  16.966  1.00  0.00     0.157 HD
ENDBRANCH  18  23
ENDBRANCH   8  11
BRANCH   9  26
HETATM   26  O   UNL     1      -2.495   7.798  16.582  1.00  0.00    -0.388 OA
ATOM     27  HO  UNL     1      -1.789   7.687  17.206  1.00  0.00     0.210 HD
ENDBRANCH   9  26
BRANCH  10  28
HETATM   28  O   UNL     1      -4.354   8.085  14.705  1.00  0.00    -0.390 OA
ATOM     29  HO  UNL     1      -4.750   8.559  13.984  1.00  0.00     0.210 HD
ENDBRANCH  10  28
ENDBRANCH   5   6
ENDBRANCH   4   5
ENDBRANCH   3   4
BRANCH   3  30
HETATM   30  O   UNL     1      -3.021   6.342   8.890  1.00  0.00    -0.180 OA
BRANCH  30  31
HETATM   31  P   UNL     1      -4.356   5.902   8.196  1.00  0.00     0.417 P 
HETATM   32  O   UNL     1      -4.352   4.381   8.135  1.00  0.00    -0.624 OA
HETATM   33  O   UNL     1      -5.487   6.603   8.857  1.00  0.00    -0.624 OA
BRANCH  31  34
HETATM   34  O   UNL     1      -4.076   6.388   6.676  1.00  0.00    -0.287 OA
BRANCH  34  35
HETATM   35  C   UNL     1      -3.793   7.763   6.322  1.00  0.00     0.216 C 
BRANCH  35  36
HETATM   36  C   UNL     1      -2.475   7.767   5.542  1.00  0.00     0.180 C 
HETATM   37  O   UNL     1      -1.477   7.971   6.533  1.00  0.00    -0.349 OA
HETATM   38  C   UNL     1      -0.204   7.528   5.860  1.00  0.00     0.289 C 
HETATM   39  C   UNL     1      -0.588   6.422   4.866  1.00  0.00     0.218 C 
HETATM   40  C   UNL     1      -2.136   6.356   5.076  1.00  0.00     0.183 C 
BRANCH  38  41
HETATM   41  O   UNL     1       0.758   7.026   6.766  1.00  0.00    -0.368 OA
ATOM     42  HO  UNL     1       0.452   7.160   7.655  1.00  0.00     0.212 HD
ENDBRANCH  38  41
BRANCH  39  43
HETATM   43  O   UNL     1      -0.194   6.885   3.581  1.00  0.00    -0.304 OA
BRANCH  43  44
HETATM   44  C   UNL     1       0.439   5.935   2.841  1.00  0.00     0.293 C 
HETATM   45  O   UNL     1       1.091   5.029   3.342  1.00  0.00    -0.259 OA
BRANCH  44  46
HETATM   46  C   UNL     1       0.246   5.963   1.461  1.00  0.00     0.039 A 
HETATM   47  C   UNL     1      -0.699   6.817   0.929  1.00  0.00     0.017 A 
HETATM   48  C   UNL     1      -0.904   6.865  -0.446  1.00  0.00     0.001 A 
HETATM   49  C   UNL     1      -0.175   6.041  -1.268  1.00  0.00     0.000 A 
HETATM   50  C   UNL     1       0.791   5.149  -0.748  1.00  0.00     0.001 A 
HETATM   51  C   UNL     1       0.992   5.116   0.646  1.00  0.00     0.017 A 
ENDBRANCH  44  46
ENDBRANCH  43  44
ENDBRANCH  39  43
BRANCH  40  52
HETATM   52  O   UNL     1      -2.748   6.055   3.859  1.00  0.00    -0.390 OA
ATOM     53  HO  UNL     1      -3.663   5.853   4.014  1.00  0.00     0.210 HD
ENDBRANCH  40  52
ENDBRANCH  35  36
ENDBRANCH  34  35
ENDBRANCH  31  34
ENDBRANCH  30  31
ENDBRANCH   3  30
TORSDOF 17
ENDMDL
MODEL 3
REMARK VINA RESULT:   -11.629      1.240      1.843
REMARK INTER + INTRA:         -23.407
REMARK INTER:                 -22.240
REMARK INTRA:                  -1.167
REMARK UNBOUND:                -1.920
REMARK  17 active torsions:
REMARK  status: ('A' for Active; 'I' for Inactive)
REMARK    1  A    between atoms: C_1  and  C_19 
REMARK    2  A    between atoms: C_2  and  N_32 
REMARK    3  A    between atoms: C_5  and  O_35 
REMARK    4  A    between atoms: C_7  and  O_37 
REMARK    5  A    between atoms: C_8  and  O_41 
REMARK    6  A    between atoms: C_10  and  O_42 
REMARK    7  A    between atoms: C_11  and  O_45 
REMARK    8  A    between atoms: C_13  and  C_16 
REMARK    9  A    between atoms: C_14  and  C_17 
REMARK   10  A    between atoms: C_16  and  O_49 
REMARK   11  A    between atoms: C_17  and  O_50 
REMARK   12  A    between atoms: C_18  and  N_27 
REMARK   13  A    between atoms: C_19  and  O_41 
REMARK   14  A    between atoms: O_44  and  P_52 
REMARK   15  A    between atoms: O_44  and  P_53 
REMARK   16  A    between atoms: O_49  and  P_52 
REMARK   17  A    between atoms: O_50  and  P_53 
ROOT
HETATM    1  O   UNL     1      -3.231   5.081   9.712  1.00  0.00    -0.624 OA
HETATM    2  O   UNL     1      -2.675   7.552   9.212  1.00  0.00    -0.624 OA
HETATM    3  P   UNL     1      -3.615   6.503   9.711  1.00  0.00     0.417 P 
ENDROOT
BRANCH   3   4
HETATM    4  O   UNL     1      -3.910   6.972  11.202  1.00  0.00    -0.287 OA
BRANCH   4   5
HETATM    5  C   UNL     1      -3.062   6.608  12.299  1.00  0.00     0.216 C 
BRANCH   5   6
HETATM    6  C   UNL     1      -3.949   6.023  13.398  1.00  0.00     0.180 C 
HETATM    7  O   UNL     1      -3.171   5.024  14.114  1.00  0.00    -0.353 OA
HETATM    8  C   UNL     1      -3.507   5.157  15.538  1.00  0.00     0.262 C 
HETATM    9  C   UNL     1      -3.564   6.660  15.684  1.00  0.00     0.198 C 
HETATM   10  C   UNL     1      -4.330   7.082  14.409  1.00  0.00     0.182 C 
BRANCH   8  11
HETATM   11  N   UNL     1      -2.174   4.586  16.037  1.00  0.00    -0.297 N 
HETATM   12  C   UNL     1      -2.119   3.419  16.702  1.00  0.00     0.142 A 
HETATM   13  N   UNL     1      -3.134   2.640  17.154  1.00  0.00    -0.336 N 
HETATM   14  C   UNL     1      -0.839   3.108  16.939  1.00  0.00     0.122 A 
HETATM   15  C   UNL     1      -2.854   1.509  17.886  1.00  0.00     0.183 A 
ATOM     16  HN  UNL     1      -4.101   2.892  16.952  1.00  0.00     0.168 HD
HETATM   17  N   UNL     1      -1.520   1.177  18.108  1.00  0.00    -0.337 N 
HETATM   18  C   UNL     1      -0.571   1.982  17.648  1.00  0.00     0.131 A 
ATOM     19  HN  UNL     1      -1.276   0.328  18.617  1.00  0.00     0.168 HD
HETATM   20  N   UNL     1      -0.085   4.094  16.364  1.00  0.00    -0.346 N 
HETATM   21  C   UNL     1      -0.919   4.973  15.781  1.00  0.00     0.188 A 
ATOM     22  HN  UNL     1       0.934   4.153  16.375  1.00  0.00     0.167 HD
BRANCH  18  23
HETATM   23  N   UNL     1       0.681   1.650  17.882  1.00  0.00    -0.383 N 
ATOM     24  HN2 UNL     1       0.884   0.897  18.538  1.00  0.00     0.157 HD
ATOM     25  HN1 UNL     1       1.410   2.178  17.401  1.00  0.00     0.157 HD
ENDBRANCH  18  23
ENDBRANCH   8  11
BRANCH   9  26
HETATM   26  O   UNL     1      -4.326   6.926  16.849  1.00  0.00    -0.388 OA
ATOM     27  HO  UNL     1      -3.861   7.511  17.435  1.00  0.00     0.210 HD
ENDBRANCH   9  26
BRANCH  10  28
HETATM   28  O   UNL     1      -5.732   6.991  14.595  1.00  0.00    -0.390 OA
ATOM     29  HO  UNL     1      -5.989   6.114  14.854  1.00  0.00     0.210 HD
ENDBRANCH  10  28
ENDBRANCH   5   6
ENDBRANCH   4   5
ENDBRANCH   3   4
BRANCH   3  30
HETATM   30  O   UNL     1      -5.048   6.472   8.938  1.00  0.00    -0.180 OA
BRANCH  30  31
HETATM   31  P   UNL     1      -5.528   7.443   7.805  1.00  0.00     0.417 P 
HETATM   32  O   UNL     1      -7.017   7.201   7.604  1.00  0.00    -0.624 OA
HETATM   33  O   UNL     1      -5.047   8.813   8.121  1.00  0.00    -0.624 OA
BRANCH  31  34
HETATM   34  O   UNL     1      -4.811   6.774   6.515  1.00  0.00    -0.287 OA
BRANCH  34  35
HETATM   35  C   UNL     1      -4.034   5.555   6.582  1.00  0.00     0.216 C 
BRANCH  35  36
HETATM   36  C   UNL     1      -2.685   5.840   5.918  1.00  0.00     0.180 C 
HETATM   37  O   UNL     1      -1.821   4.828   6.418  1.00  0.00    -0.349 OA
HETATM   38  C   UNL     1      -0.668   4.825   5.449  1.00  0.00     0.289 C 
HETATM   39  C   UNL     1      -1.233   5.243   4.083  1.00  0.00     0.218 C 
HETATM   40  C   UNL     1      -2.739   5.469   4.440  1.00  0.00     0.183 C 
BRANCH  38  41
HETATM   41  O   UNL     1      -0.045   3.562   5.329  1.00  0.00    -0.368 OA
ATOM     42  HO  UNL     1       0.467   3.540   4.530  1.00  0.00     0.212 HD
ENDBRANCH  38  41
BRANCH  39  43
HETATM   43  O   UNL     1      -0.539   6.425   3.707  1.00  0.00    -0.304 OA
BRANCH  43  44
HETATM   44  C   UNL     1       0.521   6.187   2.890  1.00  0.00     0.293 C 
HETATM   45  O   UNL     1       1.643   5.940   3.312  1.00  0.00    -0.259 OA
BRANCH  44  46
HETATM   46  C   UNL     1       0.276   6.137   1.519  1.00  0.00     0.039 A 
HETATM   47  C   UNL     1       0.956   5.217   0.745  1.00  0.00     0.017 A 
HETATM   48  C   UNL     1       0.722   5.148  -0.624  1.00  0.00     0.001 A 
HETATM   49  C   UNL     1      -0.171   6.014  -1.204  1.00  0.00     0.000 A 
HETATM   50  C   UNL     1      -0.872   6.973  -0.437  1.00  0.00     0.001 A 
HETATM   51  C   UNL     1      -0.631   7.027   0.950  1.00  0.00     0.017 A 
ENDBRANCH  44  46
ENDBRANCH  43  44
ENDBRANCH  39  43
BRANCH  40  52
HETATM   52  O   UNL     1      -3.237   6.515   3.664  1.00  0.00    -0.390 OA
ATOM     53  HO  UNL     1      -3.579   6.163   2.851  1.00  0.00     0.210 HD
ENDBRANCH  40  52
ENDBRANCH  35  36
ENDBRANCH  34  35
ENDBRANCH  31  34
ENDBRANCH  30  31
ENDBRANCH   3  30
TORSDOF 17
ENDMDL
MODEL 4
REMARK VINA RESULT:   -11.465      2.122      3.139
REMARK INTER + INTRA:         -23.103
REMARK INTER:                 -21.195
REMARK INTRA:                  -1.908
REMARK UNBOUND:                -1.920
REMARK  17 active torsions:
REMARK  status: ('A' for Active; 'I' for Inactive)
REMARK    1  A    between atoms: C_1  and  C_19 
REMARK    2  A    between atoms: C_2  and  N_32 
REMARK    3  A    between atoms: C_5  and  O_35 
REMARK    4  A    between atoms: C_7  and  O_37 
REMARK    5  A    between atoms: C_8  and  O_41 
REMARK    6  A    between atoms: C_10  and  O_42 
REMARK    7  A    between atoms: C_11  and  O_45 
REMARK    8  A    between atoms: C_13  and  C_16 
REMARK    9  A    between atoms: C_14  and  C_17 
REMARK   10  A    between atoms: C_16  and  O_49 
REMARK   11  A    between atoms: C_17  and  O_50 
REMARK   12  A    between atoms: C_18  and  N_27 
REMARK   13  A    between atoms: C_19  and  O_41 
REMARK   14  A    between atoms: O_44  and  P_52 
REMARK   15  A    between atoms: O_44  and  P_53 
REMARK   16  A    between atoms: O_49  and  P_52 
REMARK   17  A    between atoms: O_50  and  P_53 
ROOT
HETATM    1  O   UNL     1      -3.597   4.767   9.494  1.00  0.00    -0.624 OA
HETATM    2  O   UNL     1      -2.599   7.113   9.083  1.00  0.00    -0.624 OA
HETATM    3  P   UNL     1      -3.664   6.231   9.650  1.00  0.00     0.417 P 
ENDROOT
BRANCH   3   4
HETATM    4  O   UNL     1      -3.644   6.599  11.197  1.00  0.00    -0.287 OA
BRANCH   4   5
HETATM    5  C   UNL     1      -3.016   5.760  12.174  1.00  0.00     0.216 C 
BRANCH   5   6
HETATM    6  C   UNL     1      -3.698   6.019  13.517  1.00  0.00     0.180 C 
HETATM    7  O   UNL     1      -3.281   4.973  14.438  1.00  0.00    -0.353 OA
HETATM    8  C   UNL     1      -3.079   5.608  15.747  1.00  0.00     0.262 C 
HETATM    9  C   UNL     1      -2.405   6.899  15.343  1.00  0.00     0.198 C 
HETATM   10  C   UNL     1      -3.239   7.331  14.114  1.00  0.00     0.182 C 
BRANCH   8  11
HETATM   11  N   UNL     1      -2.067   4.566  16.239  1.00  0.00    -0.297 N 
HETATM   12  C   UNL     1      -2.464   3.358  16.676  1.00  0.00     0.142 A 
HETATM   13  N   UNL     1      -3.722   2.894  16.889  1.00  0.00    -0.336 N 
HETATM   14  C   UNL     1      -1.387   2.616  16.956  1.00  0.00     0.122 A 
HETATM   15  C   UNL     1      -3.905   1.636  17.417  1.00  0.00     0.183 A 
ATOM     16  HN  UNL     1      -4.527   3.474  16.658  1.00  0.00     0.168 HD
HETATM   17  N   UNL     1      -2.780   0.859  17.683  1.00  0.00    -0.337 N 
HETATM   18  C   UNL     1      -1.577   1.371  17.462  1.00  0.00     0.131 A 
ATOM     19  HN  UNL     1      -2.881  -0.091  18.043  1.00  0.00     0.168 HD
HETATM   20  N   UNL     1      -0.295   3.378  16.640  1.00  0.00    -0.346 N 
HETATM   21  C   UNL     1      -0.731   4.557  16.165  1.00  0.00     0.188 A 
ATOM     22  HN  UNL     1       0.681   3.100  16.746  1.00  0.00     0.167 HD
BRANCH  18  23
HETATM   23  N   UNL     1      -0.531   0.619  17.732  1.00  0.00    -0.383 N 
ATOM     24  HN2 UNL     1      -0.051   0.732  18.625  1.00  0.00     0.157 HD
ATOM     25  HN1 UNL     1      -0.228  -0.047  17.021  1.00  0.00     0.157 HD
ENDBRANCH  18  23
ENDBRANCH   8  11
BRANCH   9  26
HETATM   26  O   UNL     1      -2.579   7.802  16.421  1.00  0.00    -0.388 OA
ATOM     27  HO  UNL     1      -3.281   7.520  16.994  1.00  0.00     0.210 HD
ENDBRANCH   9  26
BRANCH  10  28
HETATM   28  O   UNL     1      -4.404   8.038  14.504  1.00  0.00    -0.390 OA
ATOM     29  HO  UNL     1      -4.677   8.650  13.832  1.00  0.00     0.210 HD
ENDBRANCH  10  28
ENDBRANCH   5   6
ENDBRANCH   4   5
ENDBRANCH   3   4
BRANCH   3  30
HETATM   30  O   UNL     1      -5.163   6.565   9.108  1.00  0.00    -0.180 OA
BRANCH  30  31
HETATM   31  P   UNL     1      -5.540   7.298   7.774  1.00  0.00     0.417 P 
HETATM   32  O   UNL     1      -7.031   7.086   7.549  1.00  0.00    -0.624 OA
HETATM   33  O   UNL     1      -4.998   8.681   7.825  1.00  0.00    -0.624 OA
BRANCH  31  34
HETATM   34  O   UNL     1      -4.807   6.342   6.691  1.00  0.00    -0.287 OA
BRANCH  34  35
HETATM   35  C   UNL     1      -4.371   6.804   5.391  1.00  0.00     0.216 C 
BRANCH  35  36
HETATM   36  C   UNL     1      -2.860   6.568   5.309  1.00  0.00     0.180 C 
HETATM   37  O   UNL     1      -2.625   5.465   6.175  1.00  0.00    -0.349 OA
HETATM   38  C   UNL     1      -1.271   4.957   5.753  1.00  0.00     0.289 C 
HETATM   39  C   UNL     1      -1.131   5.256   4.253  1.00  0.00     0.218 C 
HETATM   40  C   UNL     1      -2.496   5.960   3.960  1.00  0.00     0.183 C 
BRANCH  38  41
HETATM   41  O   UNL     1      -1.105   3.570   5.970  1.00  0.00    -0.368 OA
ATOM     42  HO  UNL     1      -0.292   3.421   6.438  1.00  0.00     0.212 HD
ENDBRANCH  38  41
BRANCH  39  43
HETATM   43  O   UNL     1       0.002   6.103   4.118  1.00  0.00    -0.304 OA
BRANCH  43  44
HETATM   44  C   UNL     1       1.058   5.493   3.515  1.00  0.00     0.293 C 
HETATM   45  O   UNL     1       1.012   5.066   2.370  1.00  0.00    -0.259 OA
BRANCH  44  46
HETATM   46  C   UNL     1       2.260   5.446   4.220  1.00  0.00     0.039 A 
HETATM   47  C   UNL     1       3.438   5.244   3.530  1.00  0.00     0.017 A 
HETATM   48  C   UNL     1       4.649   5.198   4.213  1.00  0.00     0.001 A 
HETATM   49  C   UNL     1       4.662   5.334   5.579  1.00  0.00     0.000 A 
HETATM   50  C   UNL     1       3.468   5.531   6.311  1.00  0.00     0.001 A 
HETATM   51  C   UNL     1       2.249   5.582   5.605  1.00  0.00     0.017 A 
ENDBRANCH  44  46
ENDBRANCH  43  44
ENDBRANCH  39  43
BRANCH  40  52
HETATM   52  O   UNL     1      -2.302   6.940   2.988  1.00  0.00    -0.390 OA
ATOM     53  HO  UNL     1      -1.896   6.545   2.226  1.00  0.00     0.210 HD
ENDBRANCH  40  52
ENDBRANCH  35  36
ENDBRANCH  34  35
ENDBRANCH  31  34
ENDBRANCH  30  31
ENDBRANCH   3  30
TORSDOF 17
ENDMDL
MODEL 5
REMARK VINA RESULT:   -11.266      2.241      3.102
REMARK INTER + INTRA:         -22.736
REMARK INTER:                 -20.505
REMARK INTRA:                  -2.231
REMARK UNBOUND:                -1.920
REMARK  17 active torsions:
REMARK  status: ('A' for Active; 'I' for Inactive)
REMARK    1  A    between atoms: C_1  and  C_19 
REMARK    2  A    between atoms: C_2  and  N_32 
REMARK    3  A    between atoms: C_5  and  O_35 
REMARK    4  A    between atoms: C_7  and  O_37 
REMARK    5  A    between atoms: C_8  and  O_41 
REMARK    6  A    between atoms: C_10  and  O_42 
REMARK    7  A    between atoms: C_11  and  O_45 
REMARK    8  A    between atoms: C_13  and  C_16 
REMARK    9  A    between atoms: C_14  and  C_17 
REMARK   10  A    between atoms: C_16  and  O_49 
REMARK   11  A    between atoms: C_17  and  O_50 
REMARK   12  A    between atoms: C_18  and  N_27 
REMARK   13  A    between atoms: C_19  and  O_41 
REMARK   14  A    between atoms: O_44  and  P_52 
REMARK   15  A    between atoms: O_44  and  P_53 
REMARK   16  A    between atoms: O_49  and  P_52 
REMARK   17  A    between atoms: O_50  and  P_53 
ROOT
HETATM    1  O   UNL     1      -3.222   5.098   9.593  1.00  0.00    -0.624 OA
HETATM    2  O   UNL     1      -2.700   7.626   9.604  1.00  0.00    -0.624 OA
HETATM    3  P   UNL     1      -3.607   6.482   9.920  1.00  0.00     0.417 P 
ENDROOT
BRANCH   3   4
HETATM    4  O   UNL     1      -3.814   6.616  11.491  1.00  0.00    -0.287 OA
BRANCH   4   5
HETATM    5  C   UNL     1      -3.024   5.877  12.432  1.00  0.00     0.216 C 
BRANCH   5   6
HETATM    6  C   UNL     1      -3.879   5.648  13.678  1.00  0.00     0.180 C 
HETATM    7  O   UNL     1      -3.158   4.736  14.552  1.00  0.00    -0.353 OA
HETATM    8  C   UNL     1      -3.365   5.205  15.928  1.00  0.00     0.262 C 
HETATM    9  C   UNL     1      -3.252   6.701  15.746  1.00  0.00     0.198 C 
HETATM   10  C   UNL     1      -4.066   6.934  14.452  1.00  0.00     0.182 C 
BRANCH   8  11
HETATM   11  N   UNL     1      -2.065   4.596  16.468  1.00  0.00    -0.297 N 
HETATM   12  C   UNL     1      -1.971   3.284  16.747  1.00  0.00     0.142 A 
HETATM   13  N   UNL     1      -2.941   2.335  16.748  1.00  0.00    -0.336 N 
HETATM   14  C   UNL     1      -0.715   3.001  17.110  1.00  0.00     0.122 A 
HETATM   15  C   UNL     1      -2.641   1.052  17.143  1.00  0.00     0.183 A 
ATOM     16  HN  UNL     1      -3.889   2.573  16.457  1.00  0.00     0.168 HD
HETATM   17  N   UNL     1      -1.327   0.757  17.495  1.00  0.00    -0.337 N 
HETATM   18  C   UNL     1      -0.424   1.729  17.482  1.00  0.00     0.131 A 
ATOM     19  HN  UNL     1      -1.062  -0.192  17.759  1.00  0.00     0.168 HD
HETATM   20  N   UNL     1      -0.007   4.168  17.009  1.00  0.00    -0.346 N 
HETATM   21  C   UNL     1      -0.842   5.128  16.576  1.00  0.00     0.188 A 
ATOM     22  HN  UNL     1       0.983   4.289  17.224  1.00  0.00     0.167 HD
BRANCH  18  23
HETATM   23  N   UNL     1       0.809   1.425  17.831  1.00  0.00    -0.383 N 
ATOM     24  HN2 UNL     1       1.221   0.553  17.501  1.00  0.00     0.157 HD
ATOM     25  HN1 UNL     1       1.305   2.077  18.440  1.00  0.00     0.157 HD
ENDBRANCH  18  23
ENDBRANCH   8  11
BRANCH   9  26
HETATM   26  O   UNL     1      -3.888   7.296  16.864  1.00  0.00    -0.388 OA
ATOM     27  HO  UNL     1      -4.575   6.735  17.205  1.00  0.00     0.210 HD
ENDBRANCH   9  26
BRANCH  10  28
HETATM   28  O   UNL     1      -5.451   7.052  14.729  1.00  0.00    -0.390 OA
ATOM     29  HO  UNL     1      -5.603   7.286  15.637  1.00  0.00     0.210 HD
ENDBRANCH  10  28
ENDBRANCH   5   6
ENDBRANCH   4   5
ENDBRANCH   3   4
BRANCH   3  30
HETATM   30  O   UNL     1      -5.084   6.596   9.242  1.00  0.00    -0.180 OA
BRANCH  30  31
HETATM   31  P   UNL     1      -5.435   7.240   7.857  1.00  0.00     0.417 P 
HETATM   32  O   UNL     1      -6.914   6.982   7.601  1.00  0.00    -0.624 OA
HETATM   33  O   UNL     1      -4.923   8.635   7.839  1.00  0.00    -0.624 OA
BRANCH  31  34
HETATM   34  O   UNL     1      -4.651   6.237   6.854  1.00  0.00    -0.287 OA
BRANCH  34  35
HETATM   35  C   UNL     1      -4.345   6.568   5.479  1.00  0.00     0.216 C 
BRANCH  35  36
HETATM   36  C   UNL     1      -2.904   6.123   5.216  1.00  0.00     0.180 C 
HETATM   37  O   UNL     1      -2.644   6.533   3.879  1.00  0.00    -0.349 OA
HETATM   38  C   UNL     1      -1.141   6.516   3.782  1.00  0.00     0.289 C 
HETATM   39  C   UNL     1      -0.600   6.843   5.182  1.00  0.00     0.218 C 
HETATM   40  C   UNL     1      -1.932   7.009   5.985  1.00  0.00     0.183 C 
BRANCH  38  41
HETATM   41  O   UNL     1      -0.633   7.453   2.854  1.00  0.00    -0.368 OA
ATOM     42  HO  UNL     1      -1.324   7.708   2.256  1.00  0.00     0.212 HD
ENDBRANCH  38  41
BRANCH  39  43
HETATM   43  O   UNL     1       0.185   5.728   5.580  1.00  0.00    -0.304 OA
BRANCH  43  44
HETATM   44  C   UNL     1       1.346   6.082   6.193  1.00  0.00     0.293 C 
HETATM   45  O   UNL     1       1.378   6.670   7.265  1.00  0.00    -0.259 OA
BRANCH  44  46
HETATM   46  C   UNL     1       2.537   5.666   5.601  1.00  0.00     0.039 A 
HETATM   47  C   UNL     1       2.556   5.384   4.249  1.00  0.00     0.017 A 
HETATM   48  C   UNL     1       3.736   4.973   3.638  1.00  0.00     0.001 A 
HETATM   49  C   UNL     1       4.875   4.827   4.391  1.00  0.00     0.000 A 
HETATM   50  C   UNL     1       4.880   5.098   5.779  1.00  0.00     0.001 A 
HETATM   51  C   UNL     1       3.679   5.521   6.384  1.00  0.00     0.017 A 
ENDBRANCH  44  46
ENDBRANCH  43  44
ENDBRANCH  39  43
BRANCH  40  52
HETATM   52  O   UNL     1      -1.737   6.551   7.287  1.00  0.00    -0.390 OA
ATOM     53  HO  UNL     1      -1.399   5.664   7.256  1.00  0.00     0.210 HD
ENDBRANCH  40  52
ENDBRANCH  35  36
ENDBRANCH  34  35
ENDBRANCH  31  34
ENDBRANCH  30  31
ENDBRANCH   3  30
TORSDOF 17
ENDMDL
MODEL 6
REMARK VINA RESULT:   -11.135      2.224      2.931
REMARK INTER + INTRA:         -22.495
REMARK INTER:                 -20.948
REMARK INTRA:                  -1.547
REMARK UNBOUND:                -1.920
REMARK  17 active torsions:
REMARK  status: ('A' for Active; 'I' for Inactive)
REMARK    1  A    between atoms: C_1  and  C_19 
REMARK    2  A    between atoms: C_2  and  N_32 
REMARK    3  A    between atoms: C_5  and  O_35 
REMARK    4  A    between atoms: C_7  and  O_37 
REMARK    5  A    between atoms: C_8  and  O_41 
REMARK    6  A    between atoms: C_10  and  O_42 
REMARK    7  A    between atoms: C_11  and  O_45 
REMARK    8  A    between atoms: C_13  and  C_16 
REMARK    9  A    between atoms: C_14  and  C_17 
REMARK   10  A    between atoms: C_16  and  O_49 
REMARK   11  A    between atoms: C_17  and  O_50 
REMARK   12  A    between atoms: C_18  and  N_27 
REMARK   13  A    between atoms: C_19  and  O_41 
REMARK   14  A    between atoms: O_44  and  P_52 
REMARK   15  A    between atoms: O_44  and  P_53 
REMARK   16  A    between atoms: O_49  and  P_52 
REMARK   17  A    between atoms: O_50  and  P_53 
ROOT
HETATM    1  O   UNL     1      -3.244   5.136   9.821  1.00  0.00    -0.624 OA
HETATM    2  O   UNL     1      -2.182   7.484   9.668  1.00  0.00    -0.624 OA
HETATM    3  P   UNL     1      -3.329   6.593  10.019  1.00  0.00     0.417 P 
ENDROOT
BRANCH   3   4
HETATM    4  O   UNL     1      -3.562   6.905  11.561  1.00  0.00    -0.287 OA
BRANCH   4   5
HETATM    5  C   UNL     1      -2.761   6.310  12.590  1.00  0.00     0.216 C 
BRANCH   5   6
HETATM    6  C   UNL     1      -3.704   5.819  13.688  1.00  0.00     0.180 C 
HETATM    7  O   UNL     1      -2.981   4.851  14.497  1.00  0.00    -0.353 OA
HETATM    8  C   UNL     1      -3.368   5.085  15.895  1.00  0.00     0.262 C 
HETATM    9  C   UNL     1      -3.392   6.595  15.942  1.00  0.00     0.198 C 
HETATM   10  C   UNL     1      -4.097   6.950  14.612  1.00  0.00     0.182 C 
BRANCH   8  11
HETATM   11  N   UNL     1      -2.070   4.517  16.483  1.00  0.00    -0.297 N 
HETATM   12  C   UNL     1      -1.937   3.204  16.744  1.00  0.00     0.142 A 
HETATM   13  N   UNL     1      -2.867   2.219  16.683  1.00  0.00    -0.336 N 
HETATM   14  C   UNL     1      -0.688   2.963  17.159  1.00  0.00     0.122 A 
HETATM   15  C   UNL     1      -2.534   0.940  17.068  1.00  0.00     0.183 A 
ATOM     16  HN  UNL     1      -3.810   2.425  16.353  1.00  0.00     0.168 HD
HETATM   17  N   UNL     1      -1.227   0.690  17.476  1.00  0.00    -0.337 N 
HETATM   18  C   UNL     1      -0.363   1.697  17.522  1.00  0.00     0.131 A 
ATOM     19  HN  UNL     1      -0.936  -0.253  17.735  1.00  0.00     0.168 HD
HETATM   20  N   UNL     1      -0.023   4.159  17.111  1.00  0.00    -0.346 N 
HETATM   21  C   UNL     1      -0.875   5.094  16.657  1.00  0.00     0.188 A 
ATOM     22  HN  UNL     1       0.950   4.314  17.374  1.00  0.00     0.167 HD
BRANCH  18  23
HETATM   23  N   UNL     1       0.863   1.435  17.922  1.00  0.00    -0.383 N 
ATOM     24  HN2 UNL     1       1.179   0.466  17.964  1.00  0.00     0.157 HD
ATOM     25  HN1 UNL     1       1.453   2.222  18.192  1.00  0.00     0.157 HD
ENDBRANCH  18  23
ENDBRANCH   8  11
BRANCH   9  26
HETATM   26  O   UNL     1      -4.191   6.955  17.055  1.00  0.00    -0.388 OA
ATOM     27  HO  UNL     1      -5.003   7.361  16.776  1.00  0.00     0.210 HD
ENDBRANCH   9  26
BRANCH  10  28
HETATM   28  O   UNL     1      -5.506   6.904  14.747  1.00  0.00    -0.390 OA
ATOM     29  HO  UNL     1      -5.855   7.744  15.020  1.00  0.00     0.210 HD
ENDBRANCH  10  28
ENDBRANCH   5   6
ENDBRANCH   4   5
ENDBRANCH   3   4
BRANCH   3  30
HETATM   30  O   UNL     1      -4.718   6.963   9.251  1.00  0.00    -0.180 OA
BRANCH  30  31
HETATM   31  P   UNL     1      -5.185   6.442   7.849  1.00  0.00     0.417 P 
HETATM   32  O   UNL     1      -4.727   4.995   7.729  1.00  0.00    -0.624 OA
HETATM   33  O   UNL     1      -6.624   6.769   7.678  1.00  0.00    -0.624 OA
BRANCH  31  34
HETATM   34  O   UNL     1      -4.198   7.282   6.876  1.00  0.00    -0.287 OA
BRANCH  34  35
HETATM   35  C   UNL     1      -4.020   6.977   5.472  1.00  0.00     0.216 C 
BRANCH  35  36
HETATM   36  C   UNL     1      -2.514   6.902   5.212  1.00  0.00     0.180 C 
HETATM   37  O   UNL     1      -1.924   7.496   6.361  1.00  0.00    -0.349 OA
HETATM   38  C   UNL     1      -0.495   7.021   6.321  1.00  0.00     0.289 C 
HETATM   39  C   UNL     1      -0.504   5.638   5.653  1.00  0.00     0.218 C 
HETATM   40  C   UNL     1      -2.029   5.464   5.349  1.00  0.00     0.183 C 
BRANCH  38  41
HETATM   41  O   UNL     1       0.092   6.916   7.603  1.00  0.00    -0.368 OA
ATOM     42  HO  UNL     1       0.597   6.114   7.651  1.00  0.00     0.212 HD
ENDBRANCH  38  41
BRANCH  39  43
HETATM   43  O   UNL     1       0.312   5.747   4.495  1.00  0.00    -0.304 OA
BRANCH  43  44
HETATM   44  C   UNL     1       1.189   4.716   4.360  1.00  0.00     0.293 C 
HETATM   45  O   UNL     1       0.857   3.611   3.953  1.00  0.00    -0.259 OA
BRANCH  44  46
HETATM   46  C   UNL     1       2.534   4.981   4.613  1.00  0.00     0.039 A 
HETATM   47  C   UNL     1       2.963   5.099   5.920  1.00  0.00     0.017 A 
HETATM   48  C   UNL     1       4.302   5.357   6.195  1.00  0.00     0.001 A 
HETATM   49  C   UNL     1       5.188   5.515   5.158  1.00  0.00     0.000 A 
HETATM   50  C   UNL     1       4.772   5.410   3.811  1.00  0.00     0.001 A 
HETATM   51  C   UNL     1       3.415   5.141   3.547  1.00  0.00     0.017 A 
ENDBRANCH  44  46
ENDBRANCH  43  44
ENDBRANCH  39  43
BRANCH  40  52
HETATM   52  O   UNL     1      -2.176   4.754   4.158  1.00  0.00    -0.390 OA
ATOM     53  HO  UNL     1      -2.863   5.157   3.640  1.00  0.00     0.210 HD
ENDBRANCH  40  52
ENDBRANCH  35  36
ENDBRANCH  34  35
ENDBRANCH  31  34
ENDBRANCH  30  31
ENDBRANCH   3  30
TORSDOF 17
ENDMDL
MODEL 7
REMARK VINA RESULT:   -11.057      1.185      1.822
REMARK INTER + INTRA:         -22.349
REMARK INTER:                 -20.544
REMARK INTRA:                  -1.805
REMARK UNBOUND:                -1.920
REMARK  17 active torsions:
REMARK  status: ('A' for Active; 'I' for Inactive)
REMARK    1  A    between atoms: C_1  and  C_19 
REMARK    2  A    between atoms: C_2  and  N_32 
REMARK    3  A    between atoms: C_5  and  O_35 
REMARK    4  A    between atoms: C_7  and  O_37 
REMARK    5  A    between atoms: C_8  and  O_41 
REMARK    6  A    between atoms: C_10  and  O_42 
REMARK    7  A    between atoms: C_11  and  O_45 
REMARK    8  A    between atoms: C_13  and  C_16 
REMARK    9  A    between atoms: C_14  and  C_17 
REMARK   10  A    between atoms: C_16  and  O_49 
REMARK   11  A    between atoms: C_17  and  O_50 
REMARK   12  A    between atoms: C_18  and  N_27 
REMARK   13  A    between atoms: C_19  and  O_41 
REMARK   14  A    between atoms: O_44  and  P_52 
REMARK   15  A    between atoms: O_44  and  P_53 
REMARK   16  A    between atoms: O_49  and  P_52 
REMARK   17  A    between atoms: O_50  and  P_53 
ROOT
HETATM    1  O   UNL     1      -1.016   9.495  11.788  1.00  0.00    -0.624 OA
HETATM    2  O   UNL     1      -3.593   9.512  11.953  1.00  0.00    -0.624 OA
HETATM    3  P   UNL     1      -2.307   8.787  11.724  1.00  0.00     0.417 P 
ENDROOT
BRANCH   3   4
HETATM    4  O   UNL     1      -2.340   7.647  12.833  1.00  0.00    -0.287 OA
BRANCH   4   5
HETATM    5  C   UNL     1      -2.752   6.307  12.539  1.00  0.00     0.216 C 
BRANCH   5   6
HETATM    6  C   UNL     1      -3.690   5.852  13.657  1.00  0.00     0.180 C 
HETATM    7  O   UNL     1      -2.975   4.881  14.471  1.00  0.00    -0.353 OA
HETATM    8  C   UNL     1      -3.338   5.143  15.870  1.00  0.00     0.262 C 
HETATM    9  C   UNL     1      -3.330   6.654  15.894  1.00  0.00     0.198 C 
HETATM   10  C   UNL     1      -4.046   7.005  14.569  1.00  0.00     0.182 C 
BRANCH   8  11
HETATM   11  N   UNL     1      -2.045   4.557  16.449  1.00  0.00    -0.297 N 
HETATM   12  C   UNL     1      -1.933   3.245  16.720  1.00  0.00     0.142 A 
HETATM   13  N   UNL     1      -2.882   2.276  16.679  1.00  0.00    -0.336 N 
HETATM   14  C   UNL     1      -0.684   2.985  17.124  1.00  0.00     0.122 A 
HETATM   15  C   UNL     1      -2.568   0.995  17.072  1.00  0.00     0.183 A 
ATOM     16  HN  UNL     1      -3.824   2.496  16.357  1.00  0.00     0.168 HD
HETATM   17  N   UNL     1      -1.260   0.725  17.468  1.00  0.00    -0.337 N 
HETATM   18  C   UNL     1      -0.378   1.716  17.495  1.00  0.00     0.131 A 
ATOM     19  HN  UNL     1      -0.984  -0.221  17.733  1.00  0.00     0.168 HD
HETATM   20  N   UNL     1       0.002   4.167  17.058  1.00  0.00    -0.346 N 
HETATM   21  C   UNL     1      -0.838   5.113  16.605  1.00  0.00     0.188 A 
ATOM     22  HN  UNL     1       0.981   4.307  17.309  1.00  0.00     0.167 HD
BRANCH  18  23
HETATM   23  N   UNL     1       0.848   1.435  17.884  1.00  0.00    -0.383 N 
ATOM     24  HN2 UNL     1       1.172   1.768  18.792  1.00  0.00     0.157 HD
ATOM     25  HN1 UNL     1       1.438   0.901  17.246  1.00  0.00     0.157 HD
ENDBRANCH  18  23
ENDBRANCH   8  11
BRANCH   9  26
HETATM   26  O   UNL     1      -4.107   7.047  17.013  1.00  0.00    -0.388 OA
ATOM     27  HO  UNL     1      -5.034   7.023  16.811  1.00  0.00     0.210 HD
ENDBRANCH   9  26
BRANCH  10  28
HETATM   28  O   UNL     1      -5.454   6.990  14.724  1.00  0.00    -0.390 OA
ATOM     29  HO  UNL     1      -5.781   6.105  14.834  1.00  0.00     0.210 HD
ENDBRANCH  10  28
ENDBRANCH   5   6
ENDBRANCH   4   5
ENDBRANCH   3   4
BRANCH   3  30
HETATM   30  O   UNL     1      -2.214   8.035  10.282  1.00  0.00    -0.180 OA
BRANCH  30  31
HETATM   31  P   UNL     1      -3.204   8.186   9.077  1.00  0.00     0.417 P 
HETATM   32  O   UNL     1      -4.357   7.220   9.316  1.00  0.00    -0.624 OA
HETATM   33  O   UNL     1      -3.491   9.630   8.878  1.00  0.00    -0.624 OA
BRANCH  31  34
HETATM   34  O   UNL     1      -2.331   7.518   7.887  1.00  0.00    -0.287 OA
BRANCH  34  35
HETATM   35  C   UNL     1      -2.183   6.088   7.718  1.00  0.00     0.216 C 
BRANCH  35  36
HETATM   36  C   UNL     1      -2.116   5.814   6.213  1.00  0.00     0.180 C 
HETATM   37  O   UNL     1      -3.447   5.461   5.857  1.00  0.00    -0.349 OA
HETATM   38  C   UNL     1      -3.480   5.639   4.362  1.00  0.00     0.289 C 
HETATM   39  C   UNL     1      -2.490   6.764   4.025  1.00  0.00     0.218 C 
HETATM   40  C   UNL     1      -1.950   7.122   5.449  1.00  0.00     0.183 C 
BRANCH  38  41
HETATM   41  O   UNL     1      -4.760   5.983   3.871  1.00  0.00    -0.368 OA
ATOM     42  HO  UNL     1      -5.379   5.994   4.591  1.00  0.00     0.212 HD
ENDBRANCH  38  41
BRANCH  39  43
HETATM   43  O   UNL     1      -1.517   6.196   3.160  1.00  0.00    -0.304 OA
BRANCH  43  44
HETATM   44  C   UNL     1      -1.046   7.073   2.233  1.00  0.00     0.293 C 
HETATM   45  O   UNL     1      -0.979   8.278   2.435  1.00  0.00    -0.259 OA
BRANCH  44  46
HETATM   46  C   UNL     1      -0.541   6.545   1.047  1.00  0.00     0.039 A 
HETATM   47  C   UNL     1      -1.057   6.978  -0.158  1.00  0.00     0.017 A 
HETATM   48  C   UNL     1      -0.563   6.468  -1.354  1.00  0.00     0.001 A 
HETATM   49  C   UNL     1       0.425   5.515  -1.327  1.00  0.00     0.000 A 
HETATM   50  C   UNL     1       0.963   5.045  -0.106  1.00  0.00     0.001 A 
HETATM   51  C   UNL     1       0.458   5.577   1.097  1.00  0.00     0.017 A 
ENDBRANCH  44  46
ENDBRANCH  43  44
ENDBRANCH  39  43
BRANCH  40  52
HETATM   52  O   UNL     1      -0.610   7.493   5.347  1.00  0.00    -0.390 OA
ATOM     53  HO  UNL     1      -0.534   8.427   5.503  1.00  0.00     0.210 HD
ENDBRANCH  40  52
ENDBRANCH  35  36
ENDBRANCH  34  35
ENDBRANCH  31  34
ENDBRANCH  30  31
ENDBRANCH   3  30
TORSDOF 17
ENDMDL
MODEL 8
REMARK VINA RESULT:   -10.967      3.155      4.403
REMARK INTER + INTRA:         -22.183
REMARK INTER:                 -20.382
REMARK INTRA:                  -1.801
REMARK UNBOUND:                -1.920
REMARK  17 active torsions:
REMARK  status: ('A' for Active; 'I' for Inactive)
REMARK    1  A    between atoms: C_1  and  C_19 
REMARK    2  A    between atoms: C_2  and  N_32 
REMARK    3  A    between atoms: C_5  and  O_35 
REMARK    4  A    between atoms: C_7  and  O_37 
REMARK    5  A    between atoms: C_8  and  O_41 
REMARK    6  A    between atoms: C_10  and  O_42 
REMARK    7  A    between atoms: C_11  and  O_45 
REMARK    8  A    between atoms: C_13  and  C_16 
REMARK    9  A    between atoms: C_14  and  C_17 
REMARK   10  A    between atoms: C_16  and  O_49 
REMARK   11  A    between atoms: C_17  and  O_50 
REMARK   12  A    between atoms: C_18  and  N_27 
REMARK   13  A    between atoms: C_19  and  O_41 
REMARK   14  A    between atoms: O_44  and  P_52 
REMARK   15  A    between atoms: O_44  and  P_53 
REMARK   16  A    between atoms: O_49  and  P_52 
REMARK   17  A    between atoms: O_50  and  P_53 
ROOT
HETATM    1  O   UNL     1      -1.374   7.372  10.205  1.00  0.00    -0.624 OA
HETATM    2  O   UNL     1      -3.361   8.829   9.434  1.00  0.00    -0.624 OA
HETATM    3  P   UNL     1      -2.824   7.618  10.126  1.00  0.00     0.417 P 
ENDROOT
BRANCH   3   4
HETATM    4  O   UNL     1      -3.418   7.756  11.595  1.00  0.00    -0.287 OA
BRANCH   4   5
HETATM    5  C   UNL     1      -2.704   7.305  12.752  1.00  0.00     0.216 C 
BRANCH   5   6
HETATM    6  C   UNL     1      -3.583   6.283  13.472  1.00  0.00     0.180 C 
HETATM    7  O   UNL     1      -2.708   5.297  14.088  1.00  0.00    -0.353 OA
HETATM    8  C   UNL     1      -3.285   4.969  15.399  1.00  0.00     0.262 C 
HETATM    9  C   UNL     1      -3.726   6.335  15.871  1.00  0.00     0.198 C 
HETATM   10  C   UNL     1      -4.363   6.932  14.594  1.00  0.00     0.182 C 
BRANCH   8  11
HETATM   11  N   UNL     1      -1.948   4.554  16.025  1.00  0.00    -0.297 N 
HETATM   12  C   UNL     1      -1.826   3.405  16.714  1.00  0.00     0.142 A 
HETATM   13  N   UNL     1      -2.787   2.523  17.087  1.00  0.00    -0.336 N 
HETATM   14  C   UNL     1      -0.547   3.240  17.070  1.00  0.00     0.122 A 
HETATM   15  C   UNL     1      -2.452   1.436  17.862  1.00  0.00     0.183 A 
ATOM     16  HN  UNL     1      -3.753   2.664  16.795  1.00  0.00     0.168 HD
HETATM   17  N   UNL     1      -1.115   1.256  18.209  1.00  0.00    -0.337 N 
HETATM   18  C   UNL     1      -0.223   2.157  17.820  1.00  0.00     0.131 A 
ATOM     19  HN  UNL     1      -0.827   0.442  18.753  1.00  0.00     0.168 HD
HETATM   20  N   UNL     1       0.144   4.299  16.546  1.00  0.00    -0.346 N 
HETATM   21  C   UNL     1      -0.725   5.075  15.876  1.00  0.00     0.188 A 
ATOM     22  HN  UNL     1       1.145   4.471  16.647  1.00  0.00     0.167 HD
BRANCH  18  23
HETATM   23  N   UNL     1       1.032   1.968  18.171  1.00  0.00    -0.383 N 
ATOM     24  HN2 UNL     1       1.761   2.006  17.459  1.00  0.00     0.157 HD
ATOM     25  HN1 UNL     1       1.226   1.773  19.154  1.00  0.00     0.157 HD
ENDBRANCH  18  23
ENDBRANCH   8  11
BRANCH   9  26
HETATM   26  O   UNL     1      -4.703   6.121  16.876  1.00  0.00    -0.388 OA
ATOM     27  HO  UNL     1      -5.354   5.492  16.591  1.00  0.00     0.210 HD
ENDBRANCH   9  26
BRANCH  10  28
HETATM   28  O   UNL     1      -5.712   6.523  14.451  1.00  0.00    -0.390 OA
ATOM     29  HO  UNL     1      -6.124   6.389  15.296  1.00  0.00     0.210 HD
ENDBRANCH  10  28
ENDBRANCH   5   6
ENDBRANCH   4   5
ENDBRANCH   3   4
BRANCH   3  30
HETATM   30  O   UNL     1      -3.379   6.209   9.526  1.00  0.00    -0.180 OA
BRANCH  30  31
HETATM   31  P   UNL     1      -4.397   6.023   8.349  1.00  0.00     0.417 P 
HETATM   32  O   UNL     1      -4.510   4.528   8.082  1.00  0.00    -0.624 OA
HETATM   33  O   UNL     1      -5.623   6.804   8.655  1.00  0.00    -0.624 OA
BRANCH  31  34
HETATM   34  O   UNL     1      -3.532   6.611   7.112  1.00  0.00    -0.287 OA
BRANCH  34  35
HETATM   35  C   UNL     1      -3.054   5.792   6.018  1.00  0.00     0.216 C 
BRANCH  35  36
HETATM   36  C   UNL     1      -1.589   5.455   6.310  1.00  0.00     0.180 C 
HETATM   37  O   UNL     1      -1.336   4.282   5.549  1.00  0.00    -0.349 OA
HETATM   38  C   UNL     1       0.167   4.219   5.470  1.00  0.00     0.289 C 
HETATM   39  C   UNL     1       0.675   5.668   5.500  1.00  0.00     0.218 C 
HETATM   40  C   UNL     1      -0.672   6.454   5.614  1.00  0.00     0.183 C 
BRANCH  38  41
HETATM   41  O   UNL     1       0.637   3.584   4.297  1.00  0.00    -0.368 OA
ATOM     42  HO  UNL     1       1.365   3.017   4.519  1.00  0.00     0.212 HD
ENDBRANCH  38  41
BRANCH  39  43
HETATM   43  O   UNL     1       1.511   5.776   6.643  1.00  0.00    -0.304 OA
BRANCH  43  44
HETATM   44  C   UNL     1       2.685   5.102   6.514  1.00  0.00     0.293 C 
HETATM   45  O   UNL     1       3.325   5.078   5.471  1.00  0.00    -0.259 OA
BRANCH  44  46
HETATM   46  C   UNL     1       3.207   4.496   7.655  1.00  0.00     0.039 A 
HETATM   47  C   UNL     1       3.667   5.287   8.688  1.00  0.00     0.017 A 
HETATM   48  C   UNL     1       4.187   4.703   9.839  1.00  0.00     0.001 A 
HETATM   49  C   UNL     1       4.258   3.335   9.931  1.00  0.00     0.000 A 
HETATM   50  C   UNL     1       3.803   2.501   8.883  1.00  0.00     0.001 A 
HETATM   51  C   UNL     1       3.273   3.107   7.726  1.00  0.00     0.017 A 
ENDBRANCH  44  46
ENDBRANCH  43  44
ENDBRANCH  39  43
BRANCH  40  52
HETATM   52  O   UNL     1      -0.468   7.594   6.391  1.00  0.00    -0.390 OA
ATOM     53  HO  UNL     1      -1.207   7.706   6.978  1.00  0.00     0.210 HD
ENDBRANCH  40  52
ENDBRANCH  35  36
ENDBRANCH  34  35
ENDBRANCH  31  34
ENDBRANCH  30  31
ENDBRANCH   3  30
TORSDOF 17
ENDMDL
MODEL 9
REMARK VINA RESULT:   -10.512      1.213      2.181
REMARK INTER + INTRA:         -21.343
REMARK INTER:                 -20.573
REMARK INTRA:                  -0.770
REMARK UNBOUND:                -1.920
REMARK  17 active torsions:
REMARK  status: ('A' for Active; 'I' for Inactive)
REMARK    1  A    between atoms: C_1  and  C_19 
REMARK    2  A    between atoms: C_2  and  N_32 
REMARK    3  A    between atoms: C_5  and  O_35 
REMARK    4  A    between atoms: C_7  and  O_37 
REMARK    5  A    between atoms: C_8  and  O_41 
REMARK    6  A    between atoms: C_10  and  O_42 
REMARK    7  A    between atoms: C_11  and  O_45 
REMARK    8  A    between atoms: C_13  and  C_16 
REMARK    9  A    between atoms: C_14  and  C_17 
REMARK   10  A    between atoms: C_16  and  O_49 
REMARK   11  A    between atoms: C_17  and  O_50 
REMARK   12  A    between atoms: C_18  and  N_27 
REMARK   13  A    between atoms: C_19  and  O_41 
REMARK   14  A    between atoms: O_44  and  P_52 
REMARK   15  A    between atoms: O_44  and  P_53 
REMARK   16  A    between atoms: O_49  and  P_52 
REMARK   17  A    between atoms: O_50  and  P_53 
ROOT
HETATM    1  O   UNL     1      -1.700   7.283  10.201  1.00  0.00    -0.624 OA
HETATM    2  O   UNL     1      -3.833   7.300  11.655  1.00  0.00    -0.624 OA
HETATM    3  P   UNL     1      -2.723   6.563  10.979  1.00  0.00     0.417 P 
ENDROOT
BRANCH   3   4
HETATM    4  O   UNL     1      -2.026   5.790  12.181  1.00  0.00    -0.287 OA
BRANCH   4   5
HETATM    5  C   UNL     1      -2.090   6.263  13.532  1.00  0.00     0.216 C 
BRANCH   5   6
HETATM    6  C   UNL     1      -3.395   5.753  14.142  1.00  0.00     0.180 C 
HETATM    7  O   UNL     1      -3.137   4.441  14.714  1.00  0.00    -0.353 OA
HETATM    8  C   UNL     1      -3.886   4.366  15.976  1.00  0.00     0.262 C 
HETATM    9  C   UNL     1      -3.656   5.752  16.532  1.00  0.00     0.198 C 
HETATM   10  C   UNL     1      -3.845   6.641  15.281  1.00  0.00     0.182 C 
BRANCH   8  11
HETATM   11  N   UNL     1      -2.953   3.331  16.617  1.00  0.00    -0.297 N 
HETATM   12  C   UNL     1      -1.652   3.598  16.825  1.00  0.00     0.142 A 
HETATM   13  N   UNL     1      -0.922   4.672  16.430  1.00  0.00    -0.336 N 
HETATM   14  C   UNL     1      -1.092   2.572  17.477  1.00  0.00     0.122 A 
HETATM   15  C   UNL     1       0.429   4.712  16.688  1.00  0.00     0.183 A 
ATOM     16  HN  UNL     1      -1.374   5.447  15.945  1.00  0.00     0.168 HD
HETATM   17  N   UNL     1       1.002   3.653  17.387  1.00  0.00    -0.337 N 
HETATM   18  C   UNL     1       0.238   2.627  17.740  1.00  0.00     0.131 A 
ATOM     19  HN  UNL     1       1.994   3.665  17.625  1.00  0.00     0.168 HD
HETATM   20  N   UNL     1      -2.091   1.667  17.711  1.00  0.00    -0.346 N 
HETATM   21  C   UNL     1      -3.234   2.166  17.212  1.00  0.00     0.188 A 
ATOM     22  HN  UNL     1      -1.987   0.769  18.184  1.00  0.00     0.167 HD
BRANCH  18  23
HETATM   23  N   UNL     1       0.807   1.634  18.391  1.00  0.00    -0.383 N 
ATOM     24  HN2 UNL     1       0.222   0.922  18.828  1.00  0.00     0.157 HD
ATOM     25  HN1 UNL     1       1.826   1.624  18.446  1.00  0.00     0.157 HD
ENDBRANCH  18  23
ENDBRANCH   8  11
BRANCH   9  26
HETATM   26  O   UNL     1      -4.681   5.983  17.483  1.00  0.00    -0.388 OA
ATOM     27  HO  UNL     1      -4.431   5.662  18.341  1.00  0.00     0.210 HD
ENDBRANCH   9  26
BRANCH  10  28
HETATM   28  O   UNL     1      -5.214   6.936  15.061  1.00  0.00    -0.390 OA
ATOM     29  HO  UNL     1      -5.363   7.241  14.174  1.00  0.00     0.210 HD
ENDBRANCH  10  28
ENDBRANCH   5   6
ENDBRANCH   4   5
ENDBRANCH   3   4
BRANCH   3  30
HETATM   30  O   UNL     1      -3.223   5.429   9.921  1.00  0.00    -0.180 OA
BRANCH  30  31
HETATM   31  P   UNL     1      -4.013   5.669   8.589  1.00  0.00     0.417 P 
HETATM   32  O   UNL     1      -4.323   4.301   7.995  1.00  0.00    -0.624 OA
HETATM   33  O   UNL     1      -5.125   6.616   8.861  1.00  0.00    -0.624 OA
BRANCH  31  34
HETATM   34  O   UNL     1      -2.840   6.280   7.653  1.00  0.00    -0.287 OA
BRANCH  34  35
HETATM   35  C   UNL     1      -3.021   7.442   6.809  1.00  0.00     0.216 C 
BRANCH  35  36
HETATM   36  C   UNL     1      -2.046   7.308   5.637  1.00  0.00     0.180 C 
HETATM   37  O   UNL     1      -1.329   6.110   5.906  1.00  0.00    -0.349 OA
HETATM   38  C   UNL     1      -0.723   5.746   4.576  1.00  0.00     0.289 C 
HETATM   39  C   UNL     1      -1.684   6.259   3.493  1.00  0.00     0.218 C 
HETATM   40  C   UNL     1      -2.799   6.917   4.371  1.00  0.00     0.183 C 
BRANCH  38  41
HETATM   41  O   UNL     1      -0.537   4.354   4.412  1.00  0.00    -0.368 OA
ATOM     42  HO  UNL     1       0.392   4.159   4.422  1.00  0.00     0.212 HD
ENDBRANCH  38  41
BRANCH  39  43
HETATM   43  O   UNL     1      -0.944   7.181   2.705  1.00  0.00    -0.304 OA
BRANCH  43  44
HETATM   44  C   UNL     1      -1.383   7.261   1.420  1.00  0.00     0.293 C 
HETATM   45  O   UNL     1      -2.328   7.963   1.085  1.00  0.00    -0.259 OA
BRANCH  44  46
HETATM   46  C   UNL     1      -0.655   6.578   0.448  1.00  0.00     0.039 A 
HETATM   47  C   UNL     1      -0.959   6.774  -0.884  1.00  0.00     0.017 A 
HETATM   48  C   UNL     1      -0.241   6.107  -1.871  1.00  0.00     0.001 A 
HETATM   49  C   UNL     1       0.757   5.234  -1.510  1.00  0.00     0.000 A 
HETATM   50  C   UNL     1       1.080   5.006  -0.152  1.00  0.00     0.001 A 
HETATM   51  C   UNL     1       0.349   5.695   0.836  1.00  0.00     0.017 A 
ENDBRANCH  44  46
ENDBRANCH  43  44
ENDBRANCH  39  43
BRANCH  40  52
HETATM   52  O   UNL     1      -3.302   8.033   3.704  1.00  0.00    -0.390 OA
ATOM     53  HO  UNL     1      -4.146   7.814   3.327  1.00  0.00     0.210 HD
ENDBRANCH  40  52
ENDBRANCH  35  36
ENDBRANCH  34  35
ENDBRANCH  31  34
ENDBRANCH  30  31
ENDBRANCH   3  30
TORSDOF 17
ENDMDL
MODEL 10
REMARK VINA RESULT:   -10.402      4.297     11.459
REMARK INTER + INTRA:         -21.140
REMARK INTER:                 -18.705
REMARK INTRA:                  -2.435
REMARK UNBOUND:                -1.920
REMARK  17 active torsions:
REMARK  status: ('A' for Active; 'I' for Inactive)
REMARK    1  A    between atoms: C_1  and  C_19 
REMARK    2  A    between atoms: C_2  and  N_32 
REMARK    3  A    between atoms: C_5  and  O_35 
REMARK    4  A    between atoms: C_7  and  O_37 
REMARK    5  A    between atoms: C_8  and  O_41 
REMARK    6  A    between atoms: C_10  and  O_42 
REMARK    7  A    between atoms: C_11  and  O_45 
REMARK    8  A    between atoms: C_13  and  C_16 
REMARK    9  A    between atoms: C_14  and  C_17 
REMARK   10  A    between atoms: C_16  and  O_49 
REMARK   11  A    between atoms: C_17  and  O_50 
REMARK   12  A    between atoms: C_18  and  N_27 
REMARK   13  A    between atoms: C_19  and  O_41 
REMARK   14  A    between atoms: O_44  and  P_52 
REMARK   15  A    between atoms: O_44  and  P_53 
REMARK   16  A    between atoms: O_49  and  P_52 
REMARK   17  A    between atoms: O_50  and  P_53 
ROOT
HETATM    1  O   UNL     1      -3.400   5.107   9.707  1.00  0.00    -0.624 OA
HETATM    2  O   UNL     1      -5.339   6.616   8.914  1.00  0.00    -0.624 OA
HETATM    3  P   UNL     1      -3.924   6.440   9.362  1.00  0.00     0.417 P 
ENDROOT
BRANCH   3   4
HETATM    4  O   UNL     1      -3.091   7.037   8.147  1.00  0.00    -0.287 OA
BRANCH   4   5
HETATM    5  C   UNL     1      -2.636   6.223   7.059  1.00  0.00     0.216 C 
BRANCH   5   6
HETATM    6  C   UNL     1      -1.455   6.941   6.404  1.00  0.00     0.180 C 
HETATM    7  O   UNL     1      -0.269   6.126   6.609  1.00  0.00    -0.353 OA
HETATM    8  C   UNL     1       0.517   6.189   5.369  1.00  0.00     0.262 C 
HETATM    9  C   UNL     1      -0.575   6.104   4.329  1.00  0.00     0.198 C 
HETATM   10  C   UNL     1      -1.651   7.052   4.908  1.00  0.00     0.182 C 
BRANCH   8  11
HETATM   11  N   UNL     1       1.206   4.836   5.585  1.00  0.00    -0.297 N 
HETATM   12  C   UNL     1       2.139   4.671   6.539  1.00  0.00     0.142 A 
HETATM   13  N   UNL     1       2.718   5.599   7.342  1.00  0.00    -0.336 N 
HETATM   14  C   UNL     1       2.507   3.385   6.576  1.00  0.00     0.122 A 
HETATM   15  C   UNL     1       3.718   5.223   8.210  1.00  0.00     0.183 A 
ATOM     16  HN  UNL     1       2.413   6.571   7.304  1.00  0.00     0.168 HD
HETATM   17  N   UNL     1       4.080   3.879   8.261  1.00  0.00    -0.337 N 
HETATM   18  C   UNL     1       3.483   3.020   7.445  1.00  0.00     0.131 A 
ATOM     19  HN  UNL     1       4.793   3.560   8.917  1.00  0.00     0.168 HD
HETATM   20  N   UNL     1       1.745   2.734   5.644  1.00  0.00    -0.346 N 
HETATM   21  C   UNL     1       0.925   3.632   5.073  1.00  0.00     0.188 A 
ATOM     22  HN  UNL     1       1.791   1.739   5.422  1.00  0.00     0.167 HD
BRANCH  18  23
HETATM   23  N   UNL     1       3.852   1.758   7.507  1.00  0.00    -0.383 N 
ATOM     24  HN2 UNL     1       4.538   1.472   8.205  1.00  0.00     0.157 HD
ATOM     25  HN1 UNL     1       3.442   1.109   6.834  1.00  0.00     0.157 HD
ENDBRANCH  18  23
ENDBRANCH   8  11
BRANCH   9  26
HETATM   26  O   UNL     1      -0.032   6.622   3.127  1.00  0.00    -0.388 OA
ATOM     27  HO  UNL     1      -0.362   7.495   2.951  1.00  0.00     0.210 HD
ENDBRANCH   9  26
BRANCH  10  28
HETATM   28  O   UNL     1      -1.394   8.400   4.556  1.00  0.00    -0.390 OA
ATOM     29  HO  UNL     1      -1.865   9.001   5.120  1.00  0.00     0.210 HD
ENDBRANCH  10  28
ENDBRANCH   5   6
ENDBRANCH   4   5
ENDBRANCH   3   4
BRANCH   3  30
HETATM   30  O   UNL     1      -3.529   7.315  10.678  1.00  0.00    -0.180 OA
BRANCH  30  31
HETATM   31  P   UNL     1      -2.276   8.240  10.850  1.00  0.00     0.417 P 
HETATM   32  O   UNL     1      -1.042   7.371  10.647  1.00  0.00    -0.624 OA
HETATM   33  O   UNL     1      -2.462   9.452  10.011  1.00  0.00    -0.624 OA
BRANCH  31  34
HETATM   34  O   UNL     1      -2.334   8.527  12.444  1.00  0.00    -0.287 OA
BRANCH  34  35
HETATM   35  C   UNL     1      -3.502   8.262  13.256  1.00  0.00     0.216 C 
BRANCH  35  36
HETATM   36  C   UNL     1      -3.124   7.158  14.247  1.00  0.00     0.180 C 
HETATM   37  O   UNL     1      -3.831   7.488  15.435  1.00  0.00    -0.349 OA
HETATM   38  C   UNL     1      -3.830   6.206  16.225  1.00  0.00     0.289 C 
HETATM   39  C   UNL     1      -3.823   5.055  15.207  1.00  0.00     0.218 C 
HETATM   40  C   UNL     1      -3.804   5.850  13.860  1.00  0.00     0.183 C 
BRANCH  38  41
HETATM   41  O   UNL     1      -4.955   6.072  17.071  1.00  0.00    -0.368 OA
ATOM     42  HO  UNL     1      -4.912   5.237  17.521  1.00  0.00     0.212 HD
ENDBRANCH  38  41
BRANCH  39  43
HETATM   43  O   UNL     1      -2.642   4.306  15.458  1.00  0.00    -0.304 OA
BRANCH  43  44
HETATM   44  C   UNL     1      -2.776   3.421  16.482  1.00  0.00     0.293 C 
HETATM   45  O   UNL     1      -3.860   2.975  16.835  1.00  0.00    -0.259 OA
BRANCH  44  46
HETATM   46  C   UNL     1      -1.609   2.949  17.080  1.00  0.00     0.039 A 
HETATM   47  C   UNL     1      -1.573   1.653  17.557  1.00  0.00     0.017 A 
HETATM   48  C   UNL     1      -0.417   1.160  18.152  1.00  0.00     0.001 A 
HETATM   49  C   UNL     1       0.680   1.976  18.282  1.00  0.00     0.000 A 
HETATM   50  C   UNL     1       0.665   3.310  17.812  1.00  0.00     0.001 A 
HETATM   51  C   UNL     1      -0.511   3.794  17.205  1.00  0.00     0.017 A 
ENDBRANCH  44  46
ENDBRANCH  43  44
ENDBRANCH  39  43
BRANCH  40  52
HETATM   52  O   UNL     1      -3.055   5.137  12.923  1.00  0.00    -0.390 OA
ATOM     53  HO  UNL     1      -3.401   4.255  12.857  1.00  0.00     0.210 HD
ENDBRANCH  40  52
ENDBRANCH  35  36
ENDBRANCH  34  35
ENDBRANCH  31  34
ENDBRANCH  30  31
ENDBRANCH   3  30
TORSDOF 17
ENDMDL
MODEL 11
REMARK VINA RESULT:   -10.373      4.303     11.119
REMARK INTER + INTRA:         -21.087
REMARK INTER:                 -19.011
REMARK INTRA:                  -2.076
REMARK UNBOUND:                -1.920
REMARK  17 active torsions:
REMARK  status: ('A' for Active; 'I' for Inactive)
REMARK    1  A    between atoms: C_1  and  C_19 
REMARK    2  A    between atoms: C_2  and  N_32 
REMARK    3  A    between atoms: C_5  and  O_35 
REMARK    4  A    between atoms: C_7  and  O_37 
REMARK    5  A    between atoms: C_8  and  O_41 
REMARK    6  A    between atoms: C_10  and  O_42 
REMARK    7  A    between atoms: C_11  and  O_45 
REMARK    8  A    between atoms: C_13  and  C_16 
REMARK    9  A    between atoms: C_14  and  C_17 
REMARK   10  A    between atoms: C_16  and  O_49 
REMARK   11  A    between atoms: C_17  and  O_50 
REMARK   12  A    between atoms: C_18  and  N_27 
REMARK   13  A    between atoms: C_19  and  O_41 
REMARK   14  A    between atoms: O_44  and  P_52 
REMARK   15  A    between atoms: O_44  and  P_53 
REMARK   16  A    between atoms: O_49  and  P_52 
REMARK   17  A    between atoms: O_50  and  P_53 
ROOT
HETATM    1  O   UNL     1      -3.982   4.340   7.514  1.00  0.00    -0.624 OA
HETATM    2  O   UNL     1      -4.483   6.608   6.388  1.00  0.00    -0.624 OA
HETATM    3  P   UNL     1      -3.522   5.642   7.002  1.00  0.00     0.417 P 
ENDROOT
BRANCH   3   4
HETATM    4  O   UNL     1      -2.461   5.410   5.841  1.00  0.00    -0.287 OA
BRANCH   4   5
HETATM    5  C   UNL     1      -1.311   4.574   6.013  1.00  0.00     0.216 C 
BRANCH   5   6
HETATM    6  C   UNL     1      -0.088   5.363   5.547  1.00  0.00     0.180 C 
HETATM    7  O   UNL     1       1.008   5.065   6.456  1.00  0.00    -0.353 OA
HETATM    8  C   UNL     1       2.226   4.959   5.641  1.00  0.00     0.262 C 
HETATM    9  C   UNL     1       1.705   4.209   4.437  1.00  0.00     0.198 C 
HETATM   10  C   UNL     1       0.355   4.916   4.172  1.00  0.00     0.182 C 
BRANCH   8  11
HETATM   11  N   UNL     1       2.954   4.029   6.620  1.00  0.00    -0.297 N 
HETATM   12  C   UNL     1       3.234   4.419   7.876  1.00  0.00     0.142 A 
HETATM   13  N   UNL     1       3.077   5.638   8.451  1.00  0.00    -0.336 N 
HETATM   14  C   UNL     1       3.783   3.396   8.541  1.00  0.00     0.122 A 
HETATM   15  C   UNL     1       3.503   5.843   9.744  1.00  0.00     0.183 A 
ATOM     16  HN  UNL     1       2.646   6.399   7.928  1.00  0.00     0.168 HD
HETATM   17  N   UNL     1       4.051   4.768  10.440  1.00  0.00    -0.337 N 
HETATM   18  C   UNL     1       4.185   3.602   9.821  1.00  0.00     0.131 A 
ATOM     19  HN  UNL     1       4.345   4.876  11.411  1.00  0.00     0.168 HD
HETATM   20  N   UNL     1       3.802   2.334   7.678  1.00  0.00    -0.346 N 
HETATM   21  C   UNL     1       3.254   2.729   6.517  1.00  0.00     0.188 A 
ATOM     22  HN  UNL     1       4.168   1.404   7.881  1.00  0.00     0.167 HD
BRANCH  18  23
HETATM   23  N   UNL     1       4.717   2.607  10.498  1.00  0.00    -0.383 N 
ATOM     24  HN2 UNL     1       4.369   2.397  11.433  1.00  0.00     0.157 HD
ATOM     25  HN1 UNL     1       5.478   2.086  10.060  1.00  0.00     0.157 HD
ENDBRANCH  18  23
ENDBRANCH   8  11
BRANCH   9  26
HETATM   26  O   UNL     1       2.621   4.447   3.382  1.00  0.00    -0.388 OA
ATOM     27  HO  UNL     1       2.583   5.351   3.094  1.00  0.00     0.210 HD
ENDBRANCH   9  26
BRANCH  10  28
HETATM   28  O   UNL     1       0.530   6.086   3.392  1.00  0.00    -0.390 OA
ATOM     29  HO  UNL     1       0.249   6.861   3.864  1.00  0.00     0.210 HD
ENDBRANCH  10  28
ENDBRANCH   5   6
ENDBRANCH   4   5
ENDBRANCH   3   4
BRANCH   3  30
HETATM   30  O   UNL     1      -2.700   6.241   8.275  1.00  0.00    -0.180 OA
BRANCH  30  31
HETATM   31  P   UNL     1      -3.225   7.271   9.334  1.00  0.00     0.417 P 
HETATM   32  O   UNL     1      -2.835   8.659   8.844  1.00  0.00    -0.624 OA
HETATM   33  O   UNL     1      -4.651   6.971   9.620  1.00  0.00    -0.624 OA
BRANCH  31  34
HETATM   34  O   UNL     1      -2.225   6.962  10.571  1.00  0.00    -0.287 OA
BRANCH  34  35
HETATM   35  C   UNL     1      -1.834   7.959  11.544  1.00  0.00     0.216 C 
BRANCH  35  36
HETATM   36  C   UNL     1      -2.129   7.380  12.931  1.00  0.00     0.180 C 
HETATM   37  O   UNL     1      -3.527   7.572  13.106  1.00  0.00    -0.349 OA
HETATM   38  C   UNL     1      -3.885   6.623  14.220  1.00  0.00     0.289 C 
HETATM   39  C   UNL     1      -2.921   5.432  14.118  1.00  0.00     0.218 C 
HETATM   40  C   UNL     1      -2.049   5.858  12.891  1.00  0.00     0.183 C 
BRANCH  38  41
HETATM   41  O   UNL     1      -5.216   6.152  14.143  1.00  0.00    -0.368 OA
ATOM     42  HO  UNL     1      -5.317   5.404  14.718  1.00  0.00     0.212 HD
ENDBRANCH  38  41
BRANCH  39  43
HETATM   43  O   UNL     1      -2.211   5.385  15.348  1.00  0.00    -0.304 OA
BRANCH  43  44
HETATM   44  C   UNL     1      -2.883   4.726  16.329  1.00  0.00     0.293 C 
HETATM   45  O   UNL     1      -3.993   5.064  16.716  1.00  0.00    -0.259 OA
BRANCH  44  46
HETATM   46  C   UNL     1      -2.302   3.565  16.837  1.00  0.00     0.039 A 
HETATM   47  C   UNL     1      -3.106   2.480  17.126  1.00  0.00     0.017 A 
HETATM   48  C   UNL     1      -2.546   1.310  17.628  1.00  0.00     0.001 A 
HETATM   49  C   UNL     1      -1.193   1.249  17.855  1.00  0.00     0.000 A 
HETATM   50  C   UNL     1      -0.349   2.350  17.577  1.00  0.00     0.001 A 
HETATM   51  C   UNL     1      -0.929   3.526  17.063  1.00  0.00     0.017 A 
ENDBRANCH  44  46
ENDBRANCH  43  44
ENDBRANCH  39  43
BRANCH  40  52
HETATM   52  O   UNL     1      -0.744   5.406  13.082  1.00  0.00    -0.390 OA
ATOM     53  HO  UNL     1      -0.594   4.649  12.528  1.00  0.00     0.210 HD
ENDBRANCH  40  52
ENDBRANCH  35  36
ENDBRANCH  34  35
ENDBRANCH  31  34
ENDBRANCH  30  31
ENDBRANCH   3  30
TORSDOF 17
ENDMDL
MODEL 12
REMARK VINA RESULT:   -10.344      3.841      4.934
REMARK INTER + INTRA:         -21.032
REMARK INTER:                 -19.198
REMARK INTRA:                  -1.834
REMARK UNBOUND:                -1.920
REMARK  17 active torsions:
REMARK  status: ('A' for Active; 'I' for Inactive)
REMARK    1  A    between atoms: C_1  and  C_19 
REMARK    2  A    between atoms: C_2  and  N_32 
REMARK    3  A    between atoms: C_5  and  O_35 
REMARK    4  A    between atoms: C_7  and  O_37 
REMARK    5  A    between atoms: C_8  and  O_41 
REMARK    6  A    between atoms: C_10  and  O_42 
REMARK    7  A    between atoms: C_11  and  O_45 
REMARK    8  A    between atoms: C_13  and  C_16 
REMARK    9  A    between atoms: C_14  and  C_17 
REMARK   10  A    between atoms: C_16  and  O_49 
REMARK   11  A    between atoms: C_17  and  O_50 
REMARK   12  A    between atoms: C_18  and  N_27 
REMARK   13  A    between atoms: C_19  and  O_41 
REMARK   14  A    between atoms: O_44  and  P_52 
REMARK   15  A    between atoms: O_44  and  P_53 
REMARK   16  A    between atoms: O_49  and  P_52 
REMARK   17  A    between atoms: O_50  and  P_53 
ROOT
HETATM    1  O   UNL     1      -0.252   7.746  13.766  1.00  0.00    -0.624 OA
HETATM    2  O   UNL     1      -1.063   7.582  11.320  1.00  0.00    -0.624 OA
HETATM    3  P   UNL     1      -0.517   6.946  12.557  1.00  0.00     0.417 P 
ENDROOT
BRANCH   3   4
HETATM    4  O   UNL     1      -1.600   5.830  12.889  1.00  0.00    -0.287 OA
BRANCH   4   5
HETATM    5  C   UNL     1      -2.974   5.960  12.504  1.00  0.00     0.216 C 
BRANCH   5   6
HETATM    6  C   UNL     1      -3.832   5.677  13.737  1.00  0.00     0.180 C 
HETATM    7  O   UNL     1      -3.095   4.761  14.592  1.00  0.00    -0.353 OA
HETATM    8  C   UNL     1      -3.324   5.188  15.979  1.00  0.00     0.262 C 
HETATM    9  C   UNL     1      -3.245   6.690  15.837  1.00  0.00     0.198 C 
HETATM   10  C   UNL     1      -4.056   6.937  14.543  1.00  0.00     0.182 C 
BRANCH   8  11
HETATM   11  N   UNL     1      -2.013   4.596  16.513  1.00  0.00    -0.297 N 
HETATM   12  C   UNL     1      -1.897   3.285  16.783  1.00  0.00     0.142 A 
HETATM   13  N   UNL     1      -2.852   2.320  16.779  1.00  0.00    -0.336 N 
HETATM   14  C   UNL     1      -0.636   3.019  17.142  1.00  0.00     0.122 A 
HETATM   15  C   UNL     1      -2.531   1.039  17.165  1.00  0.00     0.183 A 
ATOM     16  HN  UNL     1      -3.804   2.544  16.492  1.00  0.00     0.168 HD
HETATM   17  N   UNL     1      -1.211   0.764  17.514  1.00  0.00    -0.337 N 
HETATM   18  C   UNL     1      -0.324   1.750  17.506  1.00  0.00     0.131 A 
ATOM     19  HN  UNL     1      -0.930  -0.183  17.771  1.00  0.00     0.168 HD
HETATM   20  N   UNL     1       0.053   4.198  17.048  1.00  0.00    -0.346 N 
HETATM   21  C   UNL     1      -0.798   5.147  16.622  1.00  0.00     0.188 A 
ATOM     22  HN  UNL     1       1.041   4.334  17.262  1.00  0.00     0.167 HD
BRANCH  18  23
HETATM   23  N   UNL     1       0.914   1.464  17.851  1.00  0.00    -0.383 N 
ATOM     24  HN2 UNL     1       1.484   0.887  17.233  1.00  0.00     0.157 HD
ATOM     25  HN1 UNL     1       1.254   1.824  18.743  1.00  0.00     0.157 HD
ENDBRANCH  18  23
ENDBRANCH   8  11
BRANCH   9  26
HETATM   26  O   UNL     1      -3.904   7.240  16.964  1.00  0.00    -0.388 OA
ATOM     27  HO  UNL     1      -3.453   8.015  17.279  1.00  0.00     0.210 HD
ENDBRANCH   9  26
BRANCH  10  28
HETATM   28  O   UNL     1      -5.445   7.016  14.812  1.00  0.00    -0.390 OA
ATOM     29  HO  UNL     1      -5.952   7.028  14.010  1.00  0.00     0.210 HD
ENDBRANCH  10  28
ENDBRANCH   5   6
ENDBRANCH   4   5
ENDBRANCH   3   4
BRANCH   3  30
HETATM   30  O   UNL     1       0.900   6.173  12.339  1.00  0.00    -0.180 OA
BRANCH  30  31
HETATM   31  P   UNL     1       2.207   6.766  11.709  1.00  0.00     0.417 P 
HETATM   32  O   UNL     1       1.846   7.287  10.325  1.00  0.00    -0.624 OA
HETATM   33  O   UNL     1       2.833   7.685  12.695  1.00  0.00    -0.624 OA
BRANCH  31  34
HETATM   34  O   UNL     1       3.052   5.409  11.444  1.00  0.00    -0.287 OA
BRANCH  34  35
HETATM   35  C   UNL     1       4.148   5.328  10.502  1.00  0.00     0.216 C 
BRANCH  35  36
HETATM   36  C   UNL     1       3.563   4.863   9.165  1.00  0.00     0.180 C 
HETATM   37  O   UNL     1       4.308   5.575   8.185  1.00  0.00    -0.349 OA
HETATM   38  C   UNL     1       4.063   4.803   6.915  1.00  0.00     0.289 C 
HETATM   39  C   UNL     1       3.855   3.336   7.318  1.00  0.00     0.218 C 
HETATM   40  C   UNL     1       3.995   3.431   8.873  1.00  0.00     0.183 C 
BRANCH  38  41
HETATM   41  O   UNL     1       5.137   4.886   5.998  1.00  0.00    -0.368 OA
ATOM     42  HO  UNL     1       4.844   4.587   5.146  1.00  0.00     0.212 HD
ENDBRANCH  38  41
BRANCH  39  43
HETATM   43  O   UNL     1       2.554   2.979   6.872  1.00  0.00    -0.304 OA
BRANCH  43  44
HETATM   44  C   UNL     1       2.496   2.728   5.537  1.00  0.00     0.293 C 
HETATM   45  O   UNL     1       2.900   1.685   5.039  1.00  0.00    -0.259 OA
BRANCH  44  46
HETATM   46  C   UNL     1       1.862   3.673   4.732  1.00  0.00     0.039 A 
HETATM   47  C   UNL     1       2.537   4.197   3.648  1.00  0.00     0.017 A 
HETATM   48  C   UNL     1       1.921   5.138   2.829  1.00  0.00     0.001 A 
HETATM   49  C   UNL     1       0.647   5.557   3.119  1.00  0.00     0.000 A 
HETATM   50  C   UNL     1      -0.063   5.045   4.230  1.00  0.00     0.001 A 
HETATM   51  C   UNL     1       0.571   4.087   5.047  1.00  0.00     0.017 A 
ENDBRANCH  44  46
ENDBRANCH  43  44
ENDBRANCH  39  43
BRANCH  40  52
HETATM   52  O   UNL     1       3.138   2.504   9.464  1.00  0.00    -0.390 OA
ATOM     53  HO  UNL     1       2.252   2.847   9.449  1.00  0.00     0.210 HD
ENDBRANCH  40  52
ENDBRANCH  35  36
ENDBRANCH  34  35
ENDBRANCH  31  34
ENDBRANCH  30  31
ENDBRANCH   3  30
TORSDOF 17
ENDMDL
MODEL 13
REMARK VINA RESULT:   -10.343      4.564     11.848
REMARK INTER + INTRA:         -21.030
REMARK INTER:                 -19.274
REMARK INTRA:                  -1.756
REMARK UNBOUND:                -1.920
REMARK  17 active torsions:
REMARK  status: ('A' for Active; 'I' for Inactive)
REMARK    1  A    between atoms: C_1  and  C_19 
REMARK    2  A    between atoms: C_2  and  N_32 
REMARK    3  A    between atoms: C_5  and  O_35 
REMARK    4  A    between atoms: C_7  and  O_37 
REMARK    5  A    between atoms: C_8  and  O_41 
REMARK    6  A    between atoms: C_10  and  O_42 
REMARK    7  A    between atoms: C_11  and  O_45 
REMARK    8  A    between atoms: C_13  and  C_16 
REMARK    9  A    between atoms: C_14  and  C_17 
REMARK   10  A    between atoms: C_16  and  O_49 
REMARK   11  A    between atoms: C_17  and  O_50 
REMARK   12  A    between atoms: C_18  and  N_27 
REMARK   13  A    between atoms: C_19  and  O_41 
REMARK   14  A    between atoms: O_44  and  P_52 
REMARK   15  A    between atoms: O_44  and  P_53 
REMARK   16  A    between atoms: O_49  and  P_52 
REMARK   17  A    between atoms: O_50  and  P_53 
ROOT
HETATM    1  O   UNL     1      -4.519   6.984   6.108  1.00  0.00    -0.624 OA
HETATM    2  O   UNL     1      -3.115   9.024   6.839  1.00  0.00    -0.624 OA
HETATM    3  P   UNL     1      -3.253   7.555   6.600  1.00  0.00     0.417 P 
ENDROOT
BRANCH   3   4
HETATM    4  O   UNL     1      -2.095   7.256   5.552  1.00  0.00    -0.287 OA
BRANCH   4   5
HETATM    5  C   UNL     1      -2.275   7.438   4.142  1.00  0.00     0.216 C 
BRANCH   5   6
HETATM    6  C   UNL     1      -0.896   7.373   3.485  1.00  0.00     0.180 C 
HETATM    7  O   UNL     1      -0.037   6.561   4.332  1.00  0.00    -0.353 OA
HETATM    8  C   UNL     1       0.795   5.741   3.440  1.00  0.00     0.262 C 
HETATM    9  C   UNL     1      -0.212   5.349   2.383  1.00  0.00     0.198 C 
HETATM   10  C   UNL     1      -0.967   6.677   2.144  1.00  0.00     0.182 C 
BRANCH   8  11
HETATM   11  N   UNL     1       1.013   4.620   4.464  1.00  0.00    -0.297 N 
HETATM   12  C   UNL     1       2.239   4.129   4.711  1.00  0.00     0.142 A 
HETATM   13  N   UNL     1       3.412   4.388   4.079  1.00  0.00    -0.336 N 
HETATM   14  C   UNL     1       2.162   3.234   5.704  1.00  0.00     0.122 A 
HETATM   15  C   UNL     1       4.552   3.712   4.449  1.00  0.00     0.183 A 
ATOM     16  HN  UNL     1       3.447   5.082   3.333  1.00  0.00     0.168 HD
HETATM   17  N   UNL     1       4.471   2.801   5.498  1.00  0.00    -0.337 N 
HETATM   18  C   UNL     1       3.294   2.583   6.073  1.00  0.00     0.131 A 
ATOM     19  HN  UNL     1       5.303   2.307   5.821  1.00  0.00     0.168 HD
HETATM   20  N   UNL     1       0.854   3.208   6.105  1.00  0.00    -0.346 N 
HETATM   21  C   UNL     1       0.170   4.092   5.359  1.00  0.00     0.188 A 
ATOM     22  HN  UNL     1       0.465   2.619   6.842  1.00  0.00     0.167 HD
BRANCH  18  23
HETATM   23  N   UNL     1       3.244   1.708   7.055  1.00  0.00    -0.383 N 
ATOM     24  HN2 UNL     1       4.091   1.209   7.323  1.00  0.00     0.157 HD
ATOM     25  HN1 UNL     1       2.342   1.552   7.506  1.00  0.00     0.157 HD
ENDBRANCH  18  23
ENDBRANCH   8  11
BRANCH   9  26
HETATM   26  O   UNL     1       0.529   4.969   1.237  1.00  0.00    -0.388 OA
ATOM     27  HO  UNL     1       1.217   4.355   1.462  1.00  0.00     0.210 HD
ENDBRANCH   9  26
BRANCH  10  28
HETATM   28  O   UNL     1      -0.281   7.499   1.215  1.00  0.00    -0.390 OA
ATOM     29  HO  UNL     1       0.091   8.263   1.638  1.00  0.00     0.210 HD
ENDBRANCH  10  28
ENDBRANCH   5   6
ENDBRANCH   4   5
ENDBRANCH   3   4
BRANCH   3  30
HETATM   30  O   UNL     1      -2.948   6.636   7.910  1.00  0.00    -0.180 OA
BRANCH  30  31
HETATM   31  P   UNL     1      -4.003   5.990   8.872  1.00  0.00     0.417 P 
HETATM   32  O   UNL     1      -5.185   6.946   8.954  1.00  0.00    -0.624 OA
HETATM   33  O   UNL     1      -4.230   4.583   8.450  1.00  0.00    -0.624 OA
BRANCH  31  34
HETATM   34  O   UNL     1      -3.240   6.136  10.294  1.00  0.00    -0.287 OA
BRANCH  34  35
HETATM   35  C   UNL     1      -3.008   7.409  10.942  1.00  0.00     0.216 C 
BRANCH  35  36
HETATM   36  C   UNL     1      -3.033   7.159  12.453  1.00  0.00     0.180 C 
HETATM   37  O   UNL     1      -4.249   7.753  12.890  1.00  0.00    -0.349 OA
HETATM   38  C   UNL     1      -4.491   7.127  14.239  1.00  0.00     0.289 C 
HETATM   39  C   UNL     1      -3.884   5.717  14.192  1.00  0.00     0.218 C 
HETATM   40  C   UNL     1      -3.311   5.688  12.737  1.00  0.00     0.183 C 
BRANCH  38  41
HETATM   41  O   UNL     1      -5.862   7.035  14.571  1.00  0.00    -0.368 OA
ATOM     42  HO  UNL     1      -6.227   7.908  14.642  1.00  0.00     0.212 HD
ENDBRANCH  38  41
BRANCH  39  43
HETATM   43  O   UNL     1      -2.894   5.672  15.209  1.00  0.00    -0.304 OA
BRANCH  43  44
HETATM   44  C   UNL     1      -3.324   5.069  16.349  1.00  0.00     0.293 C 
HETATM   45  O   UNL     1      -4.309   5.447  16.969  1.00  0.00    -0.259 OA
BRANCH  44  46
HETATM   46  C   UNL     1      -2.653   3.918  16.760  1.00  0.00     0.039 A 
HETATM   47  C   UNL     1      -1.273   3.908  16.764  1.00  0.00     0.017 A 
HETATM   48  C   UNL     1      -0.584   2.771  17.175  1.00  0.00     0.001 A 
HETATM   49  C   UNL     1      -1.285   1.654  17.555  1.00  0.00     0.000 A 
HETATM   50  C   UNL     1      -2.700   1.635  17.549  1.00  0.00     0.001 A 
HETATM   51  C   UNL     1      -3.384   2.795  17.138  1.00  0.00     0.017 A 
ENDBRANCH  44  46
ENDBRANCH  43  44
ENDBRANCH  39  43
BRANCH  40  52
HETATM   52  O   UNL     1      -2.140   4.931  12.725  1.00  0.00    -0.390 OA
ATOM     53  HO  UNL     1      -2.354   4.026  12.920  1.00  0.00     0.210 HD
ENDBRANCH  40  52
ENDBRANCH  35  36
ENDBRANCH  34  35
ENDBRANCH  31  34
ENDBRANCH  30  31
ENDBRANCH   3  30
TORSDOF 17
ENDMDL
MODEL 14
REMARK VINA RESULT:   -10.241      1.966      2.652
REMARK INTER + INTRA:         -20.841
REMARK INTER:                 -18.827
REMARK INTRA:                  -2.014
REMARK UNBOUND:                -1.920
REMARK  17 active torsions:
REMARK  status: ('A' for Active; 'I' for Inactive)
REMARK    1  A    between atoms: C_1  and  C_19 
REMARK    2  A    between atoms: C_2  and  N_32 
REMARK    3  A    between atoms: C_5  and  O_35 
REMARK    4  A    between atoms: C_7  and  O_37 
REMARK    5  A    between atoms: C_8  and  O_41 
REMARK    6  A    between atoms: C_10  and  O_42 
REMARK    7  A    between atoms: C_11  and  O_45 
REMARK    8  A    between atoms: C_13  and  C_16 
REMARK    9  A    between atoms: C_14  and  C_17 
REMARK   10  A    between atoms: C_16  and  O_49 
REMARK   11  A    between atoms: C_17  and  O_50 
REMARK   12  A    between atoms: C_18  and  N_27 
REMARK   13  A    between atoms: C_19  and  O_41 
REMARK   14  A    between atoms: O_44  and  P_52 
REMARK   15  A    between atoms: O_44  and  P_53 
REMARK   16  A    between atoms: O_49  and  P_52 
REMARK   17  A    between atoms: O_50  and  P_53 
ROOT
HETATM    1  O   UNL     1      -1.008   9.441  11.569  1.00  0.00    -0.624 OA
HETATM    2  O   UNL     1      -3.536   9.870  11.270  1.00  0.00    -0.624 OA
HETATM    3  P   UNL     1      -2.375   8.934  11.359  1.00  0.00     0.417 P 
ENDROOT
BRANCH   3   4
HETATM    4  O   UNL     1      -2.777   7.983  12.568  1.00  0.00    -0.287 OA
BRANCH   4   5
HETATM    5  C   UNL     1      -2.649   6.558  12.495  1.00  0.00     0.216 C 
BRANCH   5   6
HETATM    6  C   UNL     1      -3.617   5.950  13.509  1.00  0.00     0.180 C 
HETATM    7  O   UNL     1      -2.888   4.959  14.284  1.00  0.00    -0.353 OA
HETATM    8  C   UNL     1      -3.348   5.076  15.674  1.00  0.00     0.262 C 
HETATM    9  C   UNL     1      -3.444   6.577  15.823  1.00  0.00     0.198 C 
HETATM   10  C   UNL     1      -4.104   6.995  14.488  1.00  0.00     0.182 C 
BRANCH   8  11
HETATM   11  N   UNL     1      -2.054   4.524  16.285  1.00  0.00    -0.297 N 
HETATM   12  C   UNL     1      -1.945   3.232  16.640  1.00  0.00     0.142 A 
HETATM   13  N   UNL     1      -2.897   2.265  16.666  1.00  0.00    -0.336 N 
HETATM   14  C   UNL     1      -0.695   2.994  17.054  1.00  0.00     0.122 A 
HETATM   15  C   UNL     1      -2.586   1.012  17.140  1.00  0.00     0.183 A 
ATOM     16  HN  UNL     1      -3.840   2.468  16.335  1.00  0.00     0.168 HD
HETATM   17  N   UNL     1      -1.277   0.763  17.547  1.00  0.00    -0.337 N 
HETATM   18  C   UNL     1      -0.392   1.751  17.505  1.00  0.00     0.131 A 
ATOM     19  HN  UNL     1      -1.003  -0.164  17.871  1.00  0.00     0.168 HD
HETATM   20  N   UNL     1      -0.006   4.168  16.908  1.00  0.00    -0.346 N 
HETATM   21  C   UNL     1      -0.845   5.085  16.399  1.00  0.00     0.188 A 
ATOM     22  HN  UNL     1       0.975   4.320  17.145  1.00  0.00     0.167 HD
BRANCH  18  23
HETATM   23  N   UNL     1       0.835   1.492  17.906  1.00  0.00    -0.383 N 
ATOM     24  HN2 UNL     1       1.134   0.522  18.005  1.00  0.00     0.157 HD
ATOM     25  HN1 UNL     1       1.442   2.284  18.120  1.00  0.00     0.157 HD
ENDBRANCH  18  23
ENDBRANCH   8  11
BRANCH   9  26
HETATM   26  O   UNL     1      -4.309   6.822  16.919  1.00  0.00    -0.388 OA
ATOM     27  HO  UNL     1      -4.325   6.083  17.514  1.00  0.00     0.210 HD
ENDBRANCH   9  26
BRANCH  10  28
HETATM   28  O   UNL     1      -5.514   6.879  14.552  1.00  0.00    -0.390 OA
ATOM     29  HO  UNL     1      -5.800   6.003  14.321  1.00  0.00     0.210 HD
ENDBRANCH  10  28
ENDBRANCH   5   6
ENDBRANCH   4   5
ENDBRANCH   3   4
BRANCH   3  30
HETATM   30  O   UNL     1      -2.189   7.978  10.053  1.00  0.00    -0.180 OA
BRANCH  30  31
HETATM   31  P   UNL     1      -3.199   7.798   8.868  1.00  0.00     0.417 P 
HETATM   32  O   UNL     1      -4.485   7.232   9.454  1.00  0.00    -0.624 OA
HETATM   33  O   UNL     1      -3.245   9.062   8.089  1.00  0.00    -0.624 OA
BRANCH  31  34
HETATM   34  O   UNL     1      -2.513   6.561   8.078  1.00  0.00    -0.287 OA
BRANCH  34  35
HETATM   35  C   UNL     1      -3.261   5.429   7.573  1.00  0.00     0.216 C 
BRANCH  35  36
HETATM   36  C   UNL     1      -2.716   5.110   6.179  1.00  0.00     0.180 C 
HETATM   37  O   UNL     1      -3.566   5.826   5.292  1.00  0.00    -0.349 OA
HETATM   38  C   UNL     1      -2.781   5.887   4.009  1.00  0.00     0.289 C 
HETATM   39  C   UNL     1      -1.295   5.906   4.396  1.00  0.00     0.218 C 
HETATM   40  C   UNL     1      -1.392   5.833   5.955  1.00  0.00     0.183 C 
BRANCH  38  41
HETATM   41  O   UNL     1      -3.074   7.031   3.231  1.00  0.00    -0.368 OA
ATOM     42  HO  UNL     1      -2.263   7.416   2.922  1.00  0.00     0.212 HD
ENDBRANCH  38  41
BRANCH  39  43
HETATM   43  O   UNL     1      -0.709   4.759   3.795  1.00  0.00    -0.304 OA
BRANCH  43  44
HETATM   44  C   UNL     1       0.388   5.049   3.045  1.00  0.00     0.293 C 
HETATM   45  O   UNL     1       0.331   5.697   2.009  1.00  0.00    -0.259 OA
BRANCH  44  46
HETATM   46  C   UNL     1       1.629   4.658   3.546  1.00  0.00     0.039 A 
HETATM   47  C   UNL     1       2.722   5.479   3.354  1.00  0.00     0.017 A 
HETATM   48  C   UNL     1       3.968   5.111   3.849  1.00  0.00     0.001 A 
HETATM   49  C   UNL     1       4.108   3.915   4.511  1.00  0.00     0.000 A 
HETATM   50  C   UNL     1       3.007   3.051   4.711  1.00  0.00     0.001 A 
HETATM   51  C   UNL     1       1.749   3.440   4.209  1.00  0.00     0.017 A 
ENDBRANCH  44  46
ENDBRANCH  43  44
ENDBRANCH  39  43
BRANCH  40  52
HETATM   52  O   UNL     1      -0.314   5.097   6.444  1.00  0.00    -0.390 OA
ATOM     53  HO  UNL     1       0.150   5.617   7.089  1.00  0.00     0.210 HD
ENDBRANCH  40  52
ENDBRANCH  35  36
ENDBRANCH  34  35
ENDBRANCH  31  34
ENDBRANCH  30  31
ENDBRANCH   3  30
TORSDOF 17
ENDMDL
MODEL 15
REMARK VINA RESULT:   -10.234      4.263     11.087
REMARK INTER + INTRA:         -20.829
REMARK INTER:                 -18.948
REMARK INTRA:                  -1.881
REMARK UNBOUND:                -1.920
REMARK  17 active torsions:
REMARK  status: ('A' for Active; 'I' for Inactive)
REMARK    1  A    between atoms: C_1  and  C_19 
REMARK    2  A    between atoms: C_2  and  N_32 
REMARK    3  A    between atoms: C_5  and  O_35 
REMARK    4  A    between atoms: C_7  and  O_37 
REMARK    5  A    between atoms: C_8  and  O_41 
REMARK    6  A    between atoms: C_10  and  O_42 
REMARK    7  A    between atoms: C_11  and  O_45 
REMARK    8  A    between atoms: C_13  and  C_16 
REMARK    9  A    between atoms: C_14  and  C_17 
REMARK   10  A    between atoms: C_16  and  O_49 
REMARK   11  A    between atoms: C_17  and  O_50 
REMARK   12  A    between atoms: C_18  and  N_27 
REMARK   13  A    between atoms: C_19  and  O_41 
REMARK   14  A    between atoms: O_44  and  P_52 
REMARK   15  A    between atoms: O_44  and  P_53 
REMARK   16  A    between atoms: O_49  and  P_52 
REMARK   17  A    between atoms: O_50  and  P_53 
ROOT
HETATM    1  O   UNL     1      -3.777   4.303   7.361  1.00  0.00    -0.624 OA
HETATM    2  O   UNL     1      -4.606   6.614   6.562  1.00  0.00    -0.624 OA
HETATM    3  P   UNL     1      -3.499   5.696   6.969  1.00  0.00     0.417 P 
ENDROOT
BRANCH   3   4
HETATM    4  O   UNL     1      -2.543   5.708   5.699  1.00  0.00    -0.287 OA
BRANCH   4   5
HETATM    5  C   UNL     1      -1.678   6.811   5.403  1.00  0.00     0.216 C 
BRANCH   5   6
HETATM    6  C   UNL     1      -0.447   6.259   4.686  1.00  0.00     0.180 C 
HETATM    7  O   UNL     1       0.710   6.504   5.532  1.00  0.00    -0.353 OA
HETATM    8  C   UNL     1       1.572   5.318   5.436  1.00  0.00     0.262 C 
HETATM    9  C   UNL     1       0.545   4.210   5.458  1.00  0.00     0.198 C 
HETATM   10  C   UNL     1      -0.548   4.760   4.511  1.00  0.00     0.182 C 
BRANCH   8  11
HETATM   11  N   UNL     1       2.221   5.520   6.811  1.00  0.00    -0.297 N 
HETATM   12  C   UNL     1       2.897   4.529   7.418  1.00  0.00     0.142 A 
HETATM   13  N   UNL     1       3.022   3.228   7.053  1.00  0.00    -0.336 N 
HETATM   14  C   UNL     1       3.436   4.994   8.551  1.00  0.00     0.122 A 
HETATM   15  C   UNL     1       3.705   2.353   7.867  1.00  0.00     0.183 A 
ATOM     16  HN  UNL     1       2.611   2.899   6.180  1.00  0.00     0.168 HD
HETATM   17  N   UNL     1       4.285   2.848   9.032  1.00  0.00    -0.337 N 
HETATM   18  C   UNL     1       4.122   4.129   9.339  1.00  0.00     0.131 A 
ATOM     19  HN  UNL     1       4.828   2.235   9.641  1.00  0.00     0.168 HD
HETATM   20  N   UNL     1       3.116   6.323   8.619  1.00  0.00    -0.346 N 
HETATM   21  C   UNL     1       2.403   6.638   7.524  1.00  0.00     0.188 A 
ATOM     22  HN  UNL     1       3.374   6.963   9.370  1.00  0.00     0.167 HD
BRANCH  18  23
HETATM   23  N   UNL     1       4.672   4.567  10.452  1.00  0.00    -0.383 N 
ATOM     24  HN2 UNL     1       5.025   5.523  10.491  1.00  0.00     0.157 HD
ATOM     25  HN1 UNL     1       4.736   3.919  11.238  1.00  0.00     0.157 HD
ENDBRANCH  18  23
ENDBRANCH   8  11
BRANCH   9  26
HETATM   26  O   UNL     1       1.170   3.065   4.905  1.00  0.00    -0.388 OA
ATOM     27  HO  UNL     1       1.344   2.414   5.573  1.00  0.00     0.210 HD
ENDBRANCH   9  26
BRANCH  10  28
HETATM   28  O   UNL     1      -0.244   4.479   3.156  1.00  0.00    -0.390 OA
ATOM     29  HO  UNL     1       0.643   4.738   2.940  1.00  0.00     0.210 HD
ENDBRANCH  10  28
ENDBRANCH   5   6
ENDBRANCH   4   5
ENDBRANCH   3   4
BRANCH   3  30
HETATM   30  O   UNL     1      -2.615   6.236   8.226  1.00  0.00    -0.180 OA
BRANCH  30  31
HETATM   31  P   UNL     1      -3.050   7.295   9.297  1.00  0.00     0.417 P 
HETATM   32  O   UNL     1      -2.679   8.667   8.752  1.00  0.00    -0.624 OA
HETATM   33  O   UNL     1      -4.457   7.021   9.688  1.00  0.00    -0.624 OA
BRANCH  31  34
HETATM   34  O   UNL     1      -1.970   6.997  10.467  1.00  0.00    -0.287 OA
BRANCH  34  35
HETATM   35  C   UNL     1      -1.698   7.919  11.549  1.00  0.00     0.216 C 
BRANCH  35  36
HETATM   36  C   UNL     1      -1.821   7.132  12.857  1.00  0.00     0.180 C 
HETATM   37  O   UNL     1      -2.142   8.114  13.833  1.00  0.00    -0.349 OA
HETATM   38  C   UNL     1      -2.700   7.314  14.981  1.00  0.00     0.289 C 
HETATM   39  C   UNL     1      -3.373   6.075  14.374  1.00  0.00     0.218 C 
HETATM   40  C   UNL     1      -3.100   6.302  12.851  1.00  0.00     0.183 C 
BRANCH  38  41
HETATM   41  O   UNL     1      -3.646   8.030  15.750  1.00  0.00    -0.368 OA
ATOM     42  HO  UNL     1      -3.302   8.163  16.625  1.00  0.00     0.212 HD
ENDBRANCH  38  41
BRANCH  39  43
HETATM   43  O   UNL     1      -2.706   4.947  14.923  1.00  0.00    -0.304 OA
BRANCH  43  44
HETATM   44  C   UNL     1      -3.151   4.613  16.164  1.00  0.00     0.293 C 
HETATM   45  O   UNL     1      -4.085   5.185  16.710  1.00  0.00    -0.259 OA
BRANCH  44  46
HETATM   46  C   UNL     1      -2.562   3.512  16.783  1.00  0.00     0.039 A 
HETATM   47  C   UNL     1      -1.193   3.491  16.962  1.00  0.00     0.017 A 
HETATM   48  C   UNL     1      -0.586   2.404  17.582  1.00  0.00     0.001 A 
HETATM   49  C   UNL     1      -1.354   1.343  17.994  1.00  0.00     0.000 A 
HETATM   50  C   UNL     1      -2.757   1.335  17.813  1.00  0.00     0.001 A 
HETATM   51  C   UNL     1      -3.359   2.445  17.190  1.00  0.00     0.017 A 
ENDBRANCH  44  46
ENDBRANCH  43  44
ENDBRANCH  39  43
BRANCH  40  52
HETATM   52  O   UNL     1      -2.909   5.067  12.234  1.00  0.00    -0.390 OA
ATOM     53  HO  UNL     1      -1.981   4.865  12.224  1.00  0.00     0.210 HD
ENDBRANCH  40  52
ENDBRANCH  35  36
ENDBRANCH  34  35
ENDBRANCH  31  34
ENDBRANCH  30  31
ENDBRANCH   3  30
TORSDOF 17
ENDMDL
MODEL 16
REMARK VINA RESULT:   -10.213      1.930      2.694
REMARK INTER + INTRA:         -20.790
REMARK INTER:                 -18.520
REMARK INTRA:                  -2.270
REMARK UNBOUND:                -1.920
REMARK  17 active torsions:
REMARK  status: ('A' for Active; 'I' for Inactive)
REMARK    1  A    between atoms: C_1  and  C_19 
REMARK    2  A    between atoms: C_2  and  N_32 
REMARK    3  A    between atoms: C_5  and  O_35 
REMARK    4  A    between atoms: C_7  and  O_37 
REMARK    5  A    between atoms: C_8  and  O_41 
REMARK    6  A    between atoms: C_10  and  O_42 
REMARK    7  A    between atoms: C_11  and  O_45 
REMARK    8  A    between atoms: C_13  and  C_16 
REMARK    9  A    between atoms: C_14  and  C_17 
REMARK   10  A    between atoms: C_16  and  O_49 
REMARK   11  A    between atoms: C_17  and  O_50 
REMARK   12  A    between atoms: C_18  and  N_27 
REMARK   13  A    between atoms: C_19  and  O_41 
REMARK   14  A    between atoms: O_44  and  P_52 
REMARK   15  A    between atoms: O_44  and  P_53 
REMARK   16  A    between atoms: O_49  and  P_52 
REMARK   17  A    between atoms: O_50  and  P_53 
ROOT
HETATM    1  O   UNL     1      -4.004   6.607  12.034  1.00  0.00    -0.624 OA
HETATM    2  O   UNL     1      -1.727   5.501  11.525  1.00  0.00    -0.624 OA
HETATM    3  P   UNL     1      -2.677   6.648  11.396  1.00  0.00     0.417 P 
ENDROOT
BRANCH   3   4
HETATM    4  O   UNL     1      -1.844   7.867  11.987  1.00  0.00    -0.287 OA
BRANCH   4   5
HETATM    5  C   UNL     1      -2.400   8.783  12.938  1.00  0.00     0.216 C 
BRANCH   5   6
HETATM    6  C   UNL     1      -1.621   8.628  14.244  1.00  0.00     0.180 C 
HETATM    7  O   UNL     1      -2.267   7.587  15.028  1.00  0.00    -0.353 OA
HETATM    8  C   UNL     1      -1.200   6.804  15.666  1.00  0.00     0.262 C 
HETATM    9  C   UNL     1      -0.193   6.717  14.543  1.00  0.00     0.198 C 
HETATM   10  C   UNL     1      -0.208   8.158  13.980  1.00  0.00     0.182 C 
BRANCH   8  11
HETATM   11  N   UNL     1      -2.036   5.523  15.783  1.00  0.00    -0.297 N 
HETATM   12  C   UNL     1      -1.562   4.436  16.416  1.00  0.00     0.142 A 
HETATM   13  N   UNL     1      -0.321   4.206  16.916  1.00  0.00    -0.336 N 
HETATM   14  C   UNL     1      -2.517   3.499  16.456  1.00  0.00     0.122 A 
HETATM   15  C   UNL     1      -0.023   2.980  17.466  1.00  0.00     0.183 A 
ATOM     16  HN  UNL     1       0.387   4.939  16.884  1.00  0.00     0.168 HD
HETATM   17  N   UNL     1      -1.028   2.019  17.527  1.00  0.00    -0.337 N 
HETATM   18  C   UNL     1      -2.219   2.299  17.014  1.00  0.00     0.131 A 
ATOM     19  HN  UNL     1      -0.851   1.112  17.959  1.00  0.00     0.168 HD
HETATM   20  N   UNL     1      -3.624   4.046  15.865  1.00  0.00    -0.346 N 
HETATM   21  C   UNL     1      -3.323   5.302  15.493  1.00  0.00     0.188 A 
ATOM     22  HN  UNL     1      -4.523   3.581  15.731  1.00  0.00     0.167 HD
BRANCH  18  23
HETATM   23  N   UNL     1      -3.147   1.368  17.075  1.00  0.00    -0.383 N 
ATOM     24  HN2 UNL     1      -4.006   1.482  16.536  1.00  0.00     0.157 HD
ATOM     25  HN1 UNL     1      -2.975   0.564  17.680  1.00  0.00     0.157 HD
ENDBRANCH  18  23
ENDBRANCH   8  11
BRANCH   9  26
HETATM   26  O   UNL     1       1.056   6.415  15.140  1.00  0.00    -0.388 OA
ATOM     27  HO  UNL     1       1.219   6.972  15.892  1.00  0.00     0.210 HD
ENDBRANCH   9  26
BRANCH  10  28
HETATM   28  O   UNL     1       0.655   9.007  14.715  1.00  0.00    -0.390 OA
ATOM     29  HO  UNL     1       0.242   9.842  14.902  1.00  0.00     0.210 HD
ENDBRANCH  10  28
ENDBRANCH   5   6
ENDBRANCH   4   5
ENDBRANCH   3   4
BRANCH   3  30
HETATM   30  O   UNL     1      -3.047   7.035   9.858  1.00  0.00    -0.180 OA
BRANCH  30  31
HETATM   31  P   UNL     1      -3.917   6.196   8.860  1.00  0.00     0.417 P 
HETATM   32  O   UNL     1      -3.607   4.727   9.116  1.00  0.00    -0.624 OA
HETATM   33  O   UNL     1      -5.322   6.671   8.941  1.00  0.00    -0.624 OA
BRANCH  31  34
HETATM   34  O   UNL     1      -3.183   6.545   7.458  1.00  0.00    -0.287 OA
BRANCH  34  35
HETATM   35  C   UNL     1      -2.472   7.783   7.221  1.00  0.00     0.216 C 
BRANCH  35  36
HETATM   36  C   UNL     1      -1.405   7.498   6.161  1.00  0.00     0.180 C 
HETATM   37  O   UNL     1      -0.283   7.036   6.901  1.00  0.00    -0.349 OA
HETATM   38  C   UNL     1       0.569   6.341   5.871  1.00  0.00     0.289 C 
HETATM   39  C   UNL     1      -0.387   5.773   4.812  1.00  0.00     0.218 C 
HETATM   40  C   UNL     1      -1.769   6.243   5.375  1.00  0.00     0.183 C 
BRANCH  38  41
HETATM   41  O   UNL     1       1.347   5.291   6.409  1.00  0.00    -0.368 OA
ATOM     42  HO  UNL     1       1.793   5.598   7.188  1.00  0.00     0.212 HD
ENDBRANCH  38  41
BRANCH  39  43
HETATM   43  O   UNL     1      -0.025   6.377   3.578  1.00  0.00    -0.304 OA
BRANCH  43  44
HETATM   44  C   UNL     1       0.521   5.501   2.693  1.00  0.00     0.293 C 
HETATM   45  O   UNL     1       1.151   4.511   3.041  1.00  0.00    -0.259 OA
BRANCH  44  46
HETATM   46  C   UNL     1       0.260   5.709   1.340  1.00  0.00     0.039 A 
HETATM   47  C   UNL     1       0.981   5.003   0.398  1.00  0.00     0.017 A 
HETATM   48  C   UNL     1       0.733   5.192  -0.958  1.00  0.00     0.001 A 
HETATM   49  C   UNL     1      -0.217   6.102  -1.353  1.00  0.00     0.000 A 
HETATM   50  C   UNL     1      -0.961   6.846  -0.408  1.00  0.00     0.001 A 
HETATM   51  C   UNL     1      -0.704   6.639   0.961  1.00  0.00     0.017 A 
ENDBRANCH  44  46
ENDBRANCH  43  44
ENDBRANCH  39  43
BRANCH  40  52
HETATM   52  O   UNL     1      -2.619   6.532   4.308  1.00  0.00    -0.390 OA
ATOM     53  HO  UNL     1      -3.242   7.196   4.580  1.00  0.00     0.210 HD
ENDBRANCH  40  52
ENDBRANCH  35  36
ENDBRANCH  34  35
ENDBRANCH  31  34
ENDBRANCH  30  31
ENDBRANCH   3  30
TORSDOF 17
ENDMDL
MODEL 17
REMARK VINA RESULT:   -10.103      4.915      7.096
REMARK INTER + INTRA:         -20.587
REMARK INTER:                 -17.143
REMARK INTRA:                  -3.444
REMARK UNBOUND:                -1.920
REMARK  17 active torsions:
REMARK  status: ('A' for Active; 'I' for Inactive)
REMARK    1  A    between atoms: C_1  and  C_19 
REMARK    2  A    between atoms: C_2  and  N_32 
REMARK    3  A    between atoms: C_5  and  O_35 
REMARK    4  A    between atoms: C_7  and  O_37 
REMARK    5  A    between atoms: C_8  and  O_41 
REMARK    6  A    between atoms: C_10  and  O_42 
REMARK    7  A    between atoms: C_11  and  O_45 
REMARK    8  A    between atoms: C_13  and  C_16 
REMARK    9  A    between atoms: C_14  and  C_17 
REMARK   10  A    between atoms: C_16  and  O_49 
REMARK   11  A    between atoms: C_17  and  O_50 
REMARK   12  A    between atoms: C_18  and  N_27 
REMARK   13  A    between atoms: C_19  and  O_41 
REMARK   14  A    between atoms: O_44  and  P_52 
REMARK   15  A    between atoms: O_44  and  P_53 
REMARK   16  A    between atoms: O_49  and  P_52 
REMARK   17  A    between atoms: O_50  and  P_53 
ROOT
HETATM    1  O   UNL     1       3.670   6.775  11.755  1.00  0.00    -0.624 OA
HETATM    2  O   UNL     1       2.372   6.957   9.530  1.00  0.00    -0.624 OA
HETATM    3  P   UNL     1       2.574   6.335  10.874  1.00  0.00     0.417 P 
ENDROOT
BRANCH   3   4
HETATM    4  O   UNL     1       1.180   6.592  11.596  1.00  0.00    -0.287 OA
BRANCH   4   5
HETATM    5  C   UNL     1       0.720   7.910  11.922  1.00  0.00     0.216 C 
BRANCH   5   6
HETATM    6  C   UNL     1      -0.802   7.852  12.054  1.00  0.00     0.180 C 
HETATM    7  O   UNL     1      -1.370   7.982  10.721  1.00  0.00    -0.353 OA
HETATM    8  C   UNL     1      -2.514   7.063  10.650  1.00  0.00     0.262 C 
HETATM    9  C   UNL     1      -1.966   5.859  11.380  1.00  0.00     0.198 C 
HETATM   10  C   UNL     1      -1.249   6.509  12.587  1.00  0.00     0.182 C 
BRANCH   8  11
HETATM   11  N   UNL     1      -2.443   6.889   9.128  1.00  0.00    -0.297 N 
HETATM   12  C   UNL     1      -3.553   6.907   8.370  1.00  0.00     0.142 A 
HETATM   13  N   UNL     1      -4.854   6.939   8.754  1.00  0.00    -0.336 N 
HETATM   14  C   UNL     1      -3.206   6.828   7.080  1.00  0.00     0.122 A 
HETATM   15  C   UNL     1      -5.849   6.875   7.805  1.00  0.00     0.183 A 
ATOM     16  HN  UNL     1      -5.094   7.010   9.743  1.00  0.00     0.168 HD
HETATM   17  N   UNL     1      -5.481   6.818   6.463  1.00  0.00    -0.337 N 
HETATM   18  C   UNL     1      -4.192   6.781   6.150  1.00  0.00     0.131 A 
ATOM     19  HN  UNL     1      -6.192   6.805   5.732  1.00  0.00     0.168 HD
HETATM   20  N   UNL     1      -1.838   6.803   7.045  1.00  0.00    -0.346 N 
HETATM   21  C   UNL     1      -1.386   6.880   8.308  1.00  0.00     0.188 A 
ATOM     22  HN  UNL     1      -1.261   6.737   6.206  1.00  0.00     0.167 HD
BRANCH  18  23
HETATM   23  N   UNL     1      -3.873   6.716   4.874  1.00  0.00    -0.383 N 
ATOM     24  HN2 UNL     1      -4.310   7.361   4.216  1.00  0.00     0.157 HD
ATOM     25  HN1 UNL     1      -3.203   6.001   4.588  1.00  0.00     0.157 HD
ENDBRANCH  18  23
ENDBRANCH   8  11
BRANCH   9  26
HETATM   26  O   UNL     1      -3.083   5.096  11.801  1.00  0.00    -0.388 OA
ATOM     27  HO  UNL     1      -2.811   4.352  12.325  1.00  0.00     0.210 HD
ENDBRANCH   9  26
BRANCH  10  28
HETATM   28  O   UNL     1      -2.153   6.765  13.647  1.00  0.00    -0.390 OA
ATOM     29  HO  UNL     1      -1.993   7.614  14.040  1.00  0.00     0.210 HD
ENDBRANCH  10  28
ENDBRANCH   5   6
ENDBRANCH   4   5
ENDBRANCH   3   4
BRANCH   3  30
HETATM   30  O   UNL     1       2.790   4.721  10.835  1.00  0.00    -0.180 OA
BRANCH  30  31
HETATM   31  P   UNL     1       3.868   3.936  10.012  1.00  0.00     0.417 P 
HETATM   32  O   UNL     1       4.974   4.923   9.659  1.00  0.00    -0.624 OA
HETATM   33  O   UNL     1       4.209   2.689  10.744  1.00  0.00    -0.624 OA
BRANCH  31  34
HETATM   34  O   UNL     1       3.064   3.689   8.627  1.00  0.00    -0.287 OA
BRANCH  34  35
HETATM   35  C   UNL     1       3.717   3.370   7.376  1.00  0.00     0.216 C 
BRANCH  35  36
HETATM   36  C   UNL     1       2.790   3.835   6.249  1.00  0.00     0.180 C 
HETATM   37  O   UNL     1       1.561   3.166   6.501  1.00  0.00    -0.349 OA
HETATM   38  C   UNL     1       0.553   3.949   5.701  1.00  0.00     0.289 C 
HETATM   39  C   UNL     1       1.051   5.401   5.656  1.00  0.00     0.218 C 
HETATM   40  C   UNL     1       2.380   5.286   6.472  1.00  0.00     0.183 C 
BRANCH  38  41
HETATM   41  O   UNL     1      -0.745   3.918   6.260  1.00  0.00    -0.368 OA
ATOM     42  HO  UNL     1      -1.146   3.077   6.076  1.00  0.00     0.212 HD
ENDBRANCH  38  41
BRANCH  39  43
HETATM   43  O   UNL     1       1.235   5.719   4.284  1.00  0.00    -0.304 OA
BRANCH  43  44
HETATM   44  C   UNL     1       0.085   6.089   3.660  1.00  0.00     0.293 C 
HETATM   45  O   UNL     1      -0.891   6.513   4.265  1.00  0.00    -0.259 OA
BRANCH  44  46
HETATM   46  C   UNL     1       0.072   6.063   2.267  1.00  0.00     0.039 A 
HETATM   47  C   UNL     1       0.888   5.169   1.602  1.00  0.00     0.017 A 
HETATM   48  C   UNL     1       0.887   5.122   0.212  1.00  0.00     0.001 A 
HETATM   49  C   UNL     1       0.086   5.985  -0.494  1.00  0.00     0.000 A 
HETATM   50  C   UNL     1      -0.751   6.918   0.162  1.00  0.00     0.001 A 
HETATM   51  C   UNL     1      -0.745   6.949   1.570  1.00  0.00     0.017 A 
ENDBRANCH  44  46
ENDBRANCH  43  44
ENDBRANCH  39  43
BRANCH  40  52
HETATM   52  O   UNL     1       3.317   6.173   5.942  1.00  0.00    -0.390 OA
ATOM     53  HO  UNL     1       2.937   7.043   5.912  1.00  0.00     0.210 HD
ENDBRANCH  40  52
ENDBRANCH  35  36
ENDBRANCH  34  35
ENDBRANCH  31  34
ENDBRANCH  30  31
ENDBRANCH   3  30
TORSDOF 17
ENDMDL
MODEL 18
REMARK VINA RESULT:   -10.094      1.272      2.242
REMARK INTER + INTRA:         -20.571
REMARK INTER:                 -20.115
REMARK INTRA:                  -0.456
REMARK UNBOUND:                -1.920
REMARK  17 active torsions:
REMARK  status: ('A' for Active; 'I' for Inactive)
REMARK    1  A    between atoms: C_1  and  C_19 
REMARK    2  A    between atoms: C_2  and  N_32 
REMARK    3  A    between atoms: C_5  and  O_35 
REMARK    4  A    between atoms: C_7  and  O_37 
REMARK    5  A    between atoms: C_8  and  O_41 
REMARK    6  A    between atoms: C_10  and  O_42 
REMARK    7  A    between atoms: C_11  and  O_45 
REMARK    8  A    between atoms: C_13  and  C_16 
REMARK    9  A    between atoms: C_14  and  C_17 
REMARK   10  A    between atoms: C_16  and  O_49 
REMARK   11  A    between atoms: C_17  and  O_50 
REMARK   12  A    between atoms: C_18  and  N_27 
REMARK   13  A    between atoms: C_19  and  O_41 
REMARK   14  A    between atoms: O_44  and  P_52 
REMARK   15  A    between atoms: O_44  and  P_53 
REMARK   16  A    between atoms: O_49  and  P_52 
REMARK   17  A    between atoms: O_50  and  P_53 
ROOT
HETATM    1  O   UNL     1      -3.242   5.376   9.957  1.00  0.00    -0.624 OA
HETATM    2  O   UNL     1      -1.566   7.338   9.886  1.00  0.00    -0.624 OA
HETATM    3  P   UNL     1      -2.958   6.819  10.048  1.00  0.00     0.417 P 
ENDROOT
BRANCH   3   4
HETATM    4  O   UNL     1      -3.369   7.349  11.490  1.00  0.00    -0.287 OA
BRANCH   4   5
HETATM    5  C   UNL     1      -2.701   6.916  12.682  1.00  0.00     0.216 C 
BRANCH   5   6
HETATM    6  C   UNL     1      -3.680   6.052  13.476  1.00  0.00     0.180 C 
HETATM    7  O   UNL     1      -2.918   4.999  14.128  1.00  0.00    -0.353 OA
HETATM    8  C   UNL     1      -3.495   4.816  15.466  1.00  0.00     0.262 C 
HETATM    9  C   UNL     1      -3.751   6.249  15.871  1.00  0.00     0.198 C 
HETATM   10  C   UNL     1      -4.343   6.852  14.575  1.00  0.00     0.182 C 
BRANCH   8  11
HETATM   11  N   UNL     1      -2.203   4.270  16.088  1.00  0.00    -0.297 N 
HETATM   12  C   UNL     1      -1.110   5.041  16.217  1.00  0.00     0.142 A 
HETATM   13  N   UNL     1      -0.883   6.295  15.749  1.00  0.00    -0.336 N 
HETATM   14  C   UNL     1      -0.163   4.356  16.869  1.00  0.00     0.122 A 
HETATM   15  C   UNL     1       0.349   6.880  15.931  1.00  0.00     0.183 A 
ATOM     16  HN  UNL     1      -1.624   6.801  15.265  1.00  0.00     0.168 HD
HETATM   17  N   UNL     1       1.322   6.171  16.631  1.00  0.00    -0.337 N 
HETATM   18  C   UNL     1       1.044   4.946  17.058  1.00  0.00     0.131 A 
ATOM     19  HN  UNL     1       2.235   6.588  16.814  1.00  0.00     0.168 HD
HETATM   20  N   UNL     1      -0.709   3.142  17.186  1.00  0.00    -0.346 N 
HETATM   21  C   UNL     1      -1.974   3.121  16.734  1.00  0.00     0.188 A 
ATOM     22  HN  UNL     1      -0.238   2.384  17.681  1.00  0.00     0.167 HD
BRANCH  18  23
HETATM   23  N   UNL     1       1.986   4.295  17.707  1.00  0.00    -0.383 N 
ATOM     24  HN2 UNL     1       1.771   3.879  18.613  1.00  0.00     0.157 HD
ATOM     25  HN1 UNL     1       2.910   4.244  17.279  1.00  0.00     0.157 HD
ENDBRANCH  18  23
ENDBRANCH   8  11
BRANCH   9  26
HETATM   26  O   UNL     1      -4.718   6.213  16.905  1.00  0.00    -0.388 OA
ATOM     27  HO  UNL     1      -4.411   5.700  17.643  1.00  0.00     0.210 HD
ENDBRANCH   9  26
BRANCH  10  28
HETATM   28  O   UNL     1      -5.736   6.609  14.483  1.00  0.00    -0.390 OA
ATOM     29  HO  UNL     1      -5.950   5.724  14.753  1.00  0.00     0.210 HD
ENDBRANCH  10  28
ENDBRANCH   5   6
ENDBRANCH   4   5
ENDBRANCH   3   4
BRANCH   3  30
HETATM   30  O   UNL     1      -4.029   7.447   8.994  1.00  0.00    -0.180 OA
BRANCH  30  31
HETATM   31  P   UNL     1      -5.022   6.654   8.077  1.00  0.00     0.417 P 
HETATM   32  O   UNL     1      -4.556   5.204   8.054  1.00  0.00    -0.624 OA
HETATM   33  O   UNL     1      -6.411   6.967   8.500  1.00  0.00    -0.624 OA
BRANCH  31  34
HETATM   34  O   UNL     1      -4.625   7.249   6.623  1.00  0.00    -0.287 OA
BRANCH  34  35
HETATM   35  C   UNL     1      -3.438   8.043   6.388  1.00  0.00     0.216 C 
BRANCH  35  36
HETATM   36  C   UNL     1      -2.958   7.730   4.968  1.00  0.00     0.180 C 
HETATM   37  O   UNL     1      -2.956   8.989   4.308  1.00  0.00    -0.349 OA
HETATM   38  C   UNL     1      -2.077   8.765   3.105  1.00  0.00     0.289 C 
HETATM   39  C   UNL     1      -1.039   7.706   3.504  1.00  0.00     0.218 C 
HETATM   40  C   UNL     1      -1.469   7.406   4.977  1.00  0.00     0.183 C 
BRANCH  38  41
HETATM   41  O   UNL     1      -1.409   9.936   2.679  1.00  0.00    -0.368 OA
ATOM     42  HO  UNL     1      -1.560  10.062   1.750  1.00  0.00     0.212 HD
ENDBRANCH  38  41
BRANCH  39  43
HETATM   43  O   UNL     1      -1.217   6.615   2.611  1.00  0.00    -0.304 OA
BRANCH  43  44
HETATM   44  C   UNL     1      -0.051   6.167   2.073  1.00  0.00     0.293 C 
HETATM   45  O   UNL     1       0.899   5.806   2.754  1.00  0.00    -0.259 OA
BRANCH  44  46
HETATM   46  C   UNL     1       0.008   6.037   0.686  1.00  0.00     0.039 A 
HETATM   47  C   UNL     1      -0.833   6.801  -0.099  1.00  0.00     0.017 A 
HETATM   48  C   UNL     1      -0.787   6.690  -1.484  1.00  0.00     0.001 A 
HETATM   49  C   UNL     1       0.084   5.801  -2.065  1.00  0.00     0.000 A 
HETATM   50  C   UNL     1       0.947   4.999  -1.283  1.00  0.00     0.001 A 
HETATM   51  C   UNL     1       0.895   5.126   0.119  1.00  0.00     0.017 A 
ENDBRANCH  44  46
ENDBRANCH  43  44
ENDBRANCH  39  43
BRANCH  40  52
HETATM   52  O   UNL     1      -1.237   6.059   5.253  1.00  0.00    -0.390 OA
ATOM     53  HO  UNL     1      -0.427   5.978   5.743  1.00  0.00     0.210 HD
ENDBRANCH  40  52
ENDBRANCH  35  36
ENDBRANCH  34  35
ENDBRANCH  31  34
ENDBRANCH  30  31
ENDBRANCH   3  30
TORSDOF 17
ENDMDL
MODEL 19
REMARK VINA RESULT:   -10.032      2.241      3.570
REMARK INTER + INTRA:         -20.457
REMARK INTER:                 -18.090
REMARK INTRA:                  -2.366
REMARK UNBOUND:                -1.920
REMARK  17 active torsions:
REMARK  status: ('A' for Active; 'I' for Inactive)
REMARK    1  A    between atoms: C_1  and  C_19 
REMARK    2  A    between atoms: C_2  and  N_32 
REMARK    3  A    between atoms: C_5  and  O_35 
REMARK    4  A    between atoms: C_7  and  O_37 
REMARK    5  A    between atoms: C_8  and  O_41 
REMARK    6  A    between atoms: C_10  and  O_42 
REMARK    7  A    between atoms: C_11  and  O_45 
REMARK    8  A    between atoms: C_13  and  C_16 
REMARK    9  A    between atoms: C_14  and  C_17 
REMARK   10  A    between atoms: C_16  and  O_49 
REMARK   11  A    between atoms: C_17  and  O_50 
REMARK   12  A    between atoms: C_18  and  N_27 
REMARK   13  A    between atoms: C_19  and  O_41 
REMARK   14  A    between atoms: O_44  and  P_52 
REMARK   15  A    between atoms: O_44  and  P_53 
REMARK   16  A    between atoms: O_49  and  P_52 
REMARK   17  A    between atoms: O_50  and  P_53 
ROOT
HETATM    1  O   UNL     1       1.096   9.131  11.876  1.00  0.00    -0.624 OA
HETATM    2  O   UNL     1      -0.376  10.673  13.334  1.00  0.00    -0.624 OA
HETATM    3  P   UNL     1      -0.141   9.369  12.642  1.00  0.00     0.417 P 
ENDROOT
BRANCH   3   4
HETATM    4  O   UNL     1      -0.240   8.315  13.828  1.00  0.00    -0.287 OA
BRANCH   4   5
HETATM    5  C   UNL     1      -1.203   8.439  14.882  1.00  0.00     0.216 C 
BRANCH   5   6
HETATM    6  C   UNL     1      -2.323   7.436  14.609  1.00  0.00     0.180 C 
HETATM    7  O   UNL     1      -1.787   6.100  14.818  1.00  0.00    -0.353 OA
HETATM    8  C   UNL     1      -2.838   5.314  15.479  1.00  0.00     0.262 C 
HETATM    9  C   UNL     1      -3.386   6.326  16.458  1.00  0.00     0.198 C 
HETATM   10  C   UNL     1      -3.457   7.608  15.595  1.00  0.00     0.182 C 
BRANCH   8  11
HETATM   11  N   UNL     1      -1.863   4.339  16.152  1.00  0.00    -0.297 N 
HETATM   12  C   UNL     1      -2.295   3.198  16.716  1.00  0.00     0.142 A 
HETATM   13  N   UNL     1      -3.566   2.768  16.919  1.00  0.00    -0.336 N 
HETATM   14  C   UNL     1      -1.240   2.494  17.144  1.00  0.00     0.122 A 
HETATM   15  C   UNL     1      -3.788   1.588  17.592  1.00  0.00     0.183 A 
ATOM     16  HN  UNL     1      -4.352   3.317  16.574  1.00  0.00     0.168 HD
HETATM   17  N   UNL     1      -2.687   0.847  18.013  1.00  0.00    -0.337 N 
HETATM   18  C   UNL     1      -1.468   1.324  17.793  1.00  0.00     0.131 A 
ATOM     19  HN  UNL     1      -2.815  -0.049  18.484  1.00  0.00     0.168 HD
HETATM   20  N   UNL     1      -0.126   3.206  16.793  1.00  0.00    -0.346 N 
HETATM   21  C   UNL     1      -0.525   4.317  16.150  1.00  0.00     0.188 A 
ATOM     22  HN  UNL     1       0.840   2.941  16.985  1.00  0.00     0.167 HD
BRANCH  18  23
HETATM   23  N   UNL     1      -0.446   0.608  18.211  1.00  0.00    -0.383 N 
ATOM     24  HN2 UNL     1      -0.589  -0.089  18.941  1.00  0.00     0.157 HD
ATOM     25  HN1 UNL     1       0.467   0.794  17.793  1.00  0.00     0.157 HD
ENDBRANCH  18  23
ENDBRANCH   8  11
BRANCH   9  26
HETATM   26  O   UNL     1      -4.682   5.881  16.819  1.00  0.00    -0.388 OA
ATOM     27  HO  UNL     1      -4.646   5.035  17.249  1.00  0.00     0.210 HD
ENDBRANCH   9  26
BRANCH  10  28
HETATM   28  O   UNL     1      -4.657   7.656  14.842  1.00  0.00    -0.390 OA
ATOM     29  HO  UNL     1      -4.651   7.017  14.140  1.00  0.00     0.210 HD
ENDBRANCH  10  28
ENDBRANCH   5   6
ENDBRANCH   4   5
ENDBRANCH   3   4
BRANCH   3  30
HETATM   30  O   UNL     1      -1.294   8.971  11.562  1.00  0.00    -0.180 OA
BRANCH  30  31
HETATM   31  P   UNL     1      -2.565   9.809  11.191  1.00  0.00     0.417 P 
HETATM   32  O   UNL     1      -3.409   9.932  12.453  1.00  0.00    -0.624 OA
HETATM   33  O   UNL     1      -2.130  11.040  10.482  1.00  0.00    -0.624 OA
BRANCH  31  34
HETATM   34  O   UNL     1      -3.357   8.752  10.253  1.00  0.00    -0.287 OA
BRANCH  34  35
HETATM   35  C   UNL     1      -3.215   7.317  10.379  1.00  0.00     0.216 C 
BRANCH  35  36
HETATM   36  C   UNL     1      -3.430   6.716   8.988  1.00  0.00     0.180 C 
HETATM   37  O   UNL     1      -4.811   6.381   8.954  1.00  0.00    -0.349 OA
HETATM   38  C   UNL     1      -5.110   6.229   7.486  1.00  0.00     0.289 C 
HETATM   39  C   UNL     1      -4.170   7.185   6.738  1.00  0.00     0.218 C 
HETATM   40  C   UNL     1      -3.372   7.811   7.929  1.00  0.00     0.183 C 
BRANCH  38  41
HETATM   41  O   UNL     1      -6.450   6.539   7.156  1.00  0.00    -0.368 OA
ATOM     42  HO  UNL     1      -6.914   6.799   7.943  1.00  0.00     0.212 HD
ENDBRANCH  38  41
BRANCH  39  43
HETATM   43  O   UNL     1      -3.385   6.378   5.871  1.00  0.00    -0.304 OA
BRANCH  43  44
HETATM   44  C   UNL     1      -3.693   6.545   4.557  1.00  0.00     0.293 C 
HETATM   45  O   UNL     1      -4.786   6.252   4.090  1.00  0.00    -0.259 OA
BRANCH  44  46
HETATM   46  C   UNL     1      -2.742   7.164   3.748  1.00  0.00     0.039 A 
HETATM   47  C   UNL     1      -1.475   6.622   3.662  1.00  0.00     0.017 A 
HETATM   48  C   UNL     1      -0.512   7.220   2.856  1.00  0.00     0.001 A 
HETATM   49  C   UNL     1      -0.824   8.364   2.164  1.00  0.00     0.000 A 
HETATM   50  C   UNL     1      -2.111   8.946   2.243  1.00  0.00     0.001 A 
HETATM   51  C   UNL     1      -3.078   8.325   3.058  1.00  0.00     0.017 A 
ENDBRANCH  44  46
ENDBRANCH  43  44
ENDBRANCH  39  43
BRANCH  40  52
HETATM   52  O   UNL     1      -2.063   8.061   7.517  1.00  0.00    -0.390 OA
ATOM     53  HO  UNL     1      -2.083   8.548   6.702  1.00  0.00     0.210 HD
ENDBRANCH  40  52
ENDBRANCH  35  36
ENDBRANCH  34  35
ENDBRANCH  31  34
ENDBRANCH  30  31
ENDBRANCH   3  30
TORSDOF 17
ENDMDL
MODEL 20
REMARK VINA RESULT:    -9.937      2.796      3.728
REMARK INTER + INTRA:         -20.280
REMARK INTER:                 -17.993
REMARK INTRA:                  -2.287
REMARK UNBOUND:                -1.920
REMARK  17 active torsions:
REMARK  status: ('A' for Active; 'I' for Inactive)
REMARK    1  A    between atoms: C_1  and  C_19 
REMARK    2  A    between atoms: C_2  and  N_32 
REMARK    3  A    between atoms: C_5  and  O_35 
REMARK    4  A    between atoms: C_7  and  O_37 
REMARK    5  A    between atoms: C_8  and  O_41 
REMARK    6  A    between atoms: C_10  and  O_42 
REMARK    7  A    between atoms: C_11  and  O_45 
REMARK    8  A    between atoms: C_13  and  C_16 
REMARK    9  A    between atoms: C_14  and  C_17 
REMARK   10  A    between atoms: C_16  and  O_49 
REMARK   11  A    between atoms: C_17  and  O_50 
REMARK   12  A    between atoms: C_18  and  N_27 
REMARK   13  A    between atoms: C_19  and  O_41 
REMARK   14  A    between atoms: O_44  and  P_52 
REMARK   15  A    between atoms: O_44  and  P_53 
REMARK   16  A    between atoms: O_49  and  P_52 
REMARK   17  A    between atoms: O_50  and  P_53 
ROOT
HETATM    1  O   UNL     1      -1.342   7.343  10.544  1.00  0.00    -0.624 OA
HETATM    2  O   UNL     1      -3.570   8.646  10.527  1.00  0.00    -0.624 OA
HETATM    3  P   UNL     1      -2.797   7.384  10.319  1.00  0.00     0.417 P 
ENDROOT
BRANCH   3   4
HETATM    4  O   UNL     1      -3.514   6.362  11.304  1.00  0.00    -0.287 OA
BRANCH   4   5
HETATM    5  C   UNL     1      -3.710   6.651  12.694  1.00  0.00     0.216 C 
BRANCH   5   6
HETATM    6  C   UNL     1      -2.883   5.648  13.498  1.00  0.00     0.180 C 
HETATM    7  O   UNL     1      -1.499   6.094  13.478  1.00  0.00    -0.353 OA
HETATM    8  C   UNL     1      -0.946   5.842  14.816  1.00  0.00     0.262 C 
HETATM    9  C   UNL     1      -2.107   6.252  15.692  1.00  0.00     0.198 C 
HETATM   10  C   UNL     1      -3.312   5.630  14.948  1.00  0.00     0.182 C 
BRANCH   8  11
HETATM   11  N   UNL     1       0.117   6.943  14.725  1.00  0.00    -0.297 N 
HETATM   12  C   UNL     1       0.892   7.078  13.635  1.00  0.00     0.142 A 
HETATM   13  N   UNL     1       0.992   6.271  12.548  1.00  0.00    -0.336 N 
HETATM   14  C   UNL     1       1.662   8.163  13.774  1.00  0.00     0.122 A 
HETATM   15  C   UNL     1       1.914   6.557  11.568  1.00  0.00     0.183 A 
ATOM     16  HN  UNL     1       0.387   5.455  12.459  1.00  0.00     0.168 HD
HETATM   17  N   UNL     1       2.696   7.701  11.706  1.00  0.00    -0.337 N 
HETATM   18  C   UNL     1       2.557   8.447  12.795  1.00  0.00     0.131 A 
ATOM     19  HN  UNL     1       3.365   7.962  10.982  1.00  0.00     0.168 HD
HETATM   20  N   UNL     1       1.318   8.735  14.969  1.00  0.00    -0.346 N 
HETATM   21  C   UNL     1       0.341   7.995  15.521  1.00  0.00     0.188 A 
ATOM     22  HN  UNL     1       1.731   9.577  15.371  1.00  0.00     0.167 HD
BRANCH  18  23
HETATM   23  N   UNL     1       3.317   9.517  12.906  1.00  0.00    -0.383 N 
ATOM     24  HN2 UNL     1       3.973   9.743  12.159  1.00  0.00     0.157 HD
ATOM     25  HN1 UNL     1       3.228  10.076  13.754  1.00  0.00     0.157 HD
ENDBRANCH  18  23
ENDBRANCH   8  11
BRANCH   9  26
HETATM   26  O   UNL     1      -1.908   5.631  16.950  1.00  0.00    -0.388 OA
ATOM     27  HO  UNL     1      -1.705   4.709  16.847  1.00  0.00     0.210 HD
ENDBRANCH   9  26
BRANCH  10  28
HETATM   28  O   UNL     1      -3.495   4.272  15.309  1.00  0.00    -0.390 OA
ATOM     29  HO  UNL     1      -3.195   4.106  16.195  1.00  0.00     0.210 HD
ENDBRANCH  10  28
ENDBRANCH   5   6
ENDBRANCH   4   5
ENDBRANCH   3   4
BRANCH   3  30
HETATM   30  O   UNL     1      -2.931   6.762   8.819  1.00  0.00    -0.180 OA
BRANCH  30  31
HETATM   31  P   UNL     1      -4.210   6.127   8.175  1.00  0.00     0.417 P 
HETATM   32  O   UNL     1      -3.985   4.622   8.113  1.00  0.00    -0.624 OA
HETATM   33  O   UNL     1      -5.407   6.658   8.876  1.00  0.00    -0.624 OA
BRANCH  31  34
HETATM   34  O   UNL     1      -4.060   6.640   6.645  1.00  0.00    -0.287 OA
BRANCH  34  35
HETATM   35  C   UNL     1      -3.620   7.974   6.295  1.00  0.00     0.216 C 
BRANCH  35  36
HETATM   36  C   UNL     1      -2.345   7.826   5.460  1.00  0.00     0.180 C 
HETATM   37  O   UNL     1      -1.301   7.734   6.420  1.00  0.00    -0.349 OA
HETATM   38  C   UNL     1      -0.151   7.144   5.646  1.00  0.00     0.289 C 
HETATM   39  C   UNL     1      -0.759   6.245   4.560  1.00  0.00     0.218 C 
HETATM   40  C   UNL     1      -2.286   6.438   4.833  1.00  0.00     0.183 C 
BRANCH  38  41
HETATM   41  O   UNL     1       0.726   6.378   6.449  1.00  0.00    -0.368 OA
ATOM     42  HO  UNL     1       1.347   6.957   6.874  1.00  0.00     0.212 HD
ENDBRANCH  38  41
BRANCH  39  43
HETATM   43  O   UNL     1      -0.319   6.768   3.314  1.00  0.00    -0.304 OA
BRANCH  43  44
HETATM   44  C   UNL     1       0.348   5.858   2.556  1.00  0.00     0.293 C 
HETATM   45  O   UNL     1       1.019   4.956   3.040  1.00  0.00    -0.259 OA
BRANCH  44  46
HETATM   46  C   UNL     1       0.171   5.919   1.175  1.00  0.00     0.039 A 
HETATM   47  C   UNL     1       0.942   5.113   0.360  1.00  0.00     0.017 A 
HETATM   48  C   UNL     1       0.778   5.155  -1.020  1.00  0.00     0.001 A 
HETATM   49  C   UNL     1      -0.139   6.017  -1.568  1.00  0.00     0.000 A 
HETATM   50  C   UNL     1      -0.933   6.861  -0.757  1.00  0.00     0.001 A 
HETATM   51  C   UNL     1      -0.761   6.803   0.640  1.00  0.00     0.017 A 
ENDBRANCH  44  46
ENDBRANCH  43  44
ENDBRANCH  39  43
BRANCH  40  52
HETATM   52  O   UNL     1      -2.975   6.390   3.622  1.00  0.00    -0.390 OA
ATOM     53  HO  UNL     1      -3.631   5.705   3.666  1.00  0.00     0.210 HD
ENDBRANCH  40  52
ENDBRANCH  35  36
ENDBRANCH  34  35
ENDBRANCH  31  34
ENDBRANCH  30  31
ENDBRANCH   3  30
TORSDOF 17
ENDMDL
