REMARK  9 active torsions:
REMARK  status: ('A' for Active; 'I' for Inactive)
REMARK    1  A    between atoms: C_2  and  C_5 
REMARK    2  A    between atoms: C_11  and  N_12 
REMARK    3  A    between atoms: C_19  and  C_20 
REMARK    4  A    between atoms: C_21  and  O_22 
REMARK    5  A    between atoms: C_25  and  C_26 
REMARK    6  A    between atoms: C_26  and  O_27 
REMARK    7  A    between atoms: C_29  and  O_30 
REMARK    8  A    between atoms: C_32  and  N_33 
REMARK    9  A    between atoms: C_38  and  C_39 
ROOT
HETATM    1  C   UNL     1     -18.217 -10.451   1.363  1.00  0.00     0.222 C 
HETATM    2  C   UNL     1     -18.219  -8.946   1.625  1.00  0.00     0.181 C 
HETATM    3  O   UNL     1     -17.428 -10.747   0.189  1.00  0.00    -0.365 OA
HETATM    4  C   UNL     1     -18.037 -10.162  -0.970  1.00  0.00     0.177 C 
HETATM    5  C   UNL     1     -18.006  -8.647  -0.853  1.00  0.00     0.176 C 
HETATM    6  C   UNL     1     -18.780  -8.255   0.402  1.00  0.00     0.168 C 
ENDROOT
BRANCH   1   7
HETATM    7  C   UNL     1     -17.615 -11.265   2.476  1.00  0.00     0.137 A 
HETATM    8  N   UNL     1     -16.653 -10.873   3.300  1.00  0.00    -0.331 N 
HETATM    9  C   UNL     1     -16.412 -11.943   4.072  1.00  0.00     0.093 A 
ATOM     10  HN  UNL     1     -16.198  -9.961   3.338  1.00  0.00     0.168 HD
HETATM   11  C   UNL     1     -15.412 -12.000   5.219  1.00  0.00     0.090 C 
HETATM   12  N   UNL     1     -17.183 -12.975   3.744  1.00  0.00    -0.281 N 
HETATM   13  N   UNL     1     -17.933 -12.545   2.698  1.00  0.00    -0.239 N 
ATOM     14  HN  UNL     1     -17.206 -13.895   4.185  1.00  0.00     0.189 HD
BRANCH  13  15
HETATM   15  C   UNL     1     -18.817 -13.310   2.019  1.00  0.00     0.075 A 
HETATM   16  C   UNL     1     -18.385 -13.912   0.824  1.00  0.00     0.056 A 
HETATM   17  C   UNL     1     -19.243 -14.720   0.064  1.00  0.00     0.036 A 
HETATM   18  C   UNL     1     -20.549 -14.931   0.495  1.00  0.00     0.025 A 
HETATM   19 CL   UNL     1     -18.712 -15.434  -1.422  1.00  0.00    -0.084 Cl
HETATM   20  C   UNL     1     -21.005 -14.311   1.657  1.00  0.00     0.020 A 
HETATM   21  C   UNL     1     -20.158 -13.500   2.447  1.00  0.00     0.076 A 
BRANCH  21  22
HETATM   22  C   UNL     1     -20.652 -12.875   3.648  1.00  0.00     0.419 C 
HETATM   23  F   UNL     1     -19.970 -13.191   4.671  1.00  0.00    -0.166 F 
HETATM   24  F   UNL     1     -20.604 -11.559   3.548  1.00  0.00    -0.166 F 
HETATM   25  F   UNL     1     -21.967 -13.215   3.883  1.00  0.00    -0.166 F 
ENDBRANCH  21  22
ENDBRANCH  13  15
ENDBRANCH   1   7
BRANCH   2  26
HETATM   26  O   UNL     1     -19.090  -8.710   2.741  1.00  0.00    -0.390 OA
ATOM     27  HO  UNL     1     -18.738  -9.144   3.509  1.00  0.00     0.210 HD
ENDBRANCH   2  26
BRANCH   4  28
HETATM   28  C   UNL     1     -17.200 -10.637  -2.167  1.00  0.00     0.198 C 
BRANCH  28  29
HETATM   29  O   UNL     1     -17.285 -12.055  -2.349  1.00  0.00    -0.398 OA
ATOM     30  HO  UNL     1     -16.767 -12.349  -3.089  1.00  0.00     0.209 HD
ENDBRANCH  28  29
ENDBRANCH   4  28
BRANCH   6  31
HETATM   31  N   UNL     1     -18.831  -6.803   0.567  1.00  0.00    -0.275 N 
HETATM   32  C   UNL     1     -17.854  -5.888   0.746  1.00  0.00     0.140 A 
HETATM   33  C   UNL     1     -18.463  -4.687   0.837  1.00  0.00     0.073 A 
HETATM   34  N   UNL     1     -19.790  -4.905   0.724  1.00  0.00    -0.282 N 
HETATM   35  N   UNL     1     -20.029  -6.197   0.547  1.00  0.00    -0.020 NA
ATOM     36  HN  UNL     1     -20.506  -4.180   0.768  1.00  0.00     0.184 HD
BRANCH  33  37
HETATM   37  C   UNL     1     -17.914  -3.445   1.007  1.00  0.00    -0.001 A 
HETATM   38  C   UNL     1     -16.584  -3.153   0.643  1.00  0.00     0.058 A 
HETATM   39  C   UNL     1     -16.082  -1.854   0.776  1.00  0.00     0.142 A 
HETATM   40  F   UNL     1     -14.804  -1.612   0.411  1.00  0.00    -0.204 F 
HETATM   41  C   UNL     1     -16.904  -0.838   1.269  1.00  0.00     0.111 A 
HETATM   42 CL   UNL     1     -16.425   0.748   1.544  1.00  0.00    -0.078 Cl
HETATM   43  C   UNL     1     -18.204  -1.114   1.632  1.00  0.00     0.142 A 
HETATM   44  F   UNL     1     -18.981  -0.110   2.123  1.00  0.00    -0.204 F 
HETATM   45  C   UNL     1     -18.722  -2.393   1.486  1.00  0.00     0.058 A 
ENDBRANCH  33  37
ENDBRANCH   6  31
BRANCH   5  46
HETATM   46  O   UNL     1     -16.650  -8.200  -0.764  1.00  0.00    -0.391 OA
ATOM     47  HO  UNL     1     -16.631  -7.253  -0.691  1.00  0.00     0.210 HD
ENDBRANCH   5  46
TORSDOF 9
