REMARK  6 active torsions:
REMARK  status: ('A' for Active; 'I' for Inactive)
REMARK    1  A    between atoms: C_1  and  O_7 
REMARK    2  A    between atoms: C_2  and  O_9 
REMARK    3  A    between atoms: C_3  and  O_11 
REMARK    4  A    between atoms: C_4  and  O_13 
REMARK    5  A    between atoms: C_5  and  C_6 
REMARK    6  A    between atoms: C_6  and  O_16 
ROOT
HETATM    1  C   UNL     1     -13.809 -19.027  17.502  1.00  0.00     0.288 C 
HETATM    2  C   UNL     1     -13.240 -20.382  17.942  1.00  0.00     0.204 C 
HETATM    3  C   UNL     1     -12.947 -20.441  19.397  1.00  0.00     0.183 C 
HETATM    4  C   UNL     1     -12.073 -19.291  19.812  1.00  0.00     0.180 C 
HETATM    5  C   UNL     1     -12.682 -17.972  19.353  1.00  0.00     0.179 C 
HETATM    6  O   UNL     1     -12.944 -17.954  17.906  1.00  0.00    -0.349 OA
ENDROOT
BRANCH   5   7
HETATM    7  C   UNL     1     -11.741 -16.843  19.712  1.00  0.00     0.198 C 
BRANCH   7   8
HETATM    8  O   UNL     1     -12.280 -15.615  19.253  1.00  0.00    -0.398 OA
ATOM      9  HO  UNL     1     -11.689 -14.906  19.478  1.00  0.00     0.209 HD
ENDBRANCH   7   8
ENDBRANCH   5   7
BRANCH   4  10
HETATM   10  O   UNL     1     -10.772 -19.396  19.236  1.00  0.00    -0.390 OA
ATOM     11  HO  UNL     1     -10.220 -18.669  19.498  1.00  0.00     0.210 HD
ENDBRANCH   4  10
BRANCH   3  12
HETATM   12  O   UNL     1     -12.308 -21.701  19.752  1.00  0.00    -0.390 OA
ATOM     13  HO  UNL     1     -12.121 -21.739  20.683  1.00  0.00     0.210 HD
ENDBRANCH   3  12
BRANCH   1  14
HETATM   14  O   UNL     1     -15.076 -18.821  18.018  1.00  0.00    -0.369 OA
ATOM     15  HO  UNL     1     -15.428 -17.982  17.746  1.00  0.00     0.212 HD
ENDBRANCH   1  14
BRANCH   2  16
HETATM   16  O   UNL     1     -14.200 -21.410  17.597  1.00  0.00    -0.388 OA
ATOM     17  HO  UNL     1     -14.387 -21.372  16.666  1.00  0.00     0.210 HD
ENDBRANCH   2  16
TORSDOF 6
