MODEL 1
REMARK VINA RESULT:    -4.539      0.000      0.000
REMARK INTER + INTRA:          -5.715
REMARK INTER:                  -5.467
REMARK INTRA:                  -0.247
REMARK UNBOUND:                -0.247
REMARK  6 active torsions:
REMARK  status: ('A' for Active; 'I' for Inactive)
REMARK    1  A    between atoms: C_1  and  C_2 
REMARK    2  A    between atoms: C_1  and  O_7 
REMARK    3  A    between atoms: C_2  and  O_9 
REMARK    4  A    between atoms: C_3  and  O_11 
REMARK    5  A    between atoms: C_4  and  O_13 
REMARK    6  A    between atoms: C_5  and  O_15 
ROOT
HETATM    1  C   UNL     1      -4.600   5.177 -18.003  1.00  0.00     0.212 C 
HETATM    2  C   UNL     1      -3.329   6.003 -17.762  1.00  0.00     0.213 C 
HETATM    3  C   UNL     1      -2.139   5.084 -17.484  1.00  0.00     0.183 C 
HETATM    4  C   UNL     1      -1.986   4.076 -18.614  1.00  0.00     0.173 C 
HETATM    5  C   UNL     1      -3.282   3.323 -18.778  1.00  0.00     0.206 C 
HETATM    6  O   UNL     1      -4.367   4.234 -19.045  1.00  0.00    -0.349 OA
ENDROOT
BRANCH   1   7
HETATM    7  C   UNL     1      -5.758   6.044 -18.474  1.00  0.00     0.235 C 
BRANCH   7   8
HETATM    8  O   UNL     1      -5.299   7.292 -18.977  1.00  0.00    -0.395 OA
ATOM      9  HO  UNL     1      -5.374   7.332 -19.924  1.00  0.00     0.209 HD
ENDBRANCH   7   8
ENDBRANCH   1   7
BRANCH   1  10
HETATM   10  O   UNL     1      -4.916   4.499 -16.817  1.00  0.00    -0.362 OA
ATOM     11  HO  UNL     1      -5.801   4.696 -16.529  1.00  0.00     0.213 HD
ENDBRANCH   1  10
BRANCH   2  12
HETATM   12  O   UNL     1      -3.517   6.894 -16.666  1.00  0.00    -0.387 OA
ATOM     13  HO  UNL     1      -3.596   7.788 -16.977  1.00  0.00     0.210 HD
ENDBRANCH   2  12
BRANCH   3  14
HETATM   14  O   UNL     1      -0.958   5.855 -17.297  1.00  0.00    -0.390 OA
ATOM     15  HO  UNL     1      -0.172   5.335 -17.415  1.00  0.00     0.210 HD
ENDBRANCH   3  14
BRANCH   4  16
HETATM   16  O   UNL     1      -1.699   4.712 -19.870  1.00  0.00    -0.391 OA
ATOM     17  HO  UNL     1      -2.427   4.529 -20.452  1.00  0.00     0.210 HD
ENDBRANCH   4  16
TORSDOF 6
ENDMDL
MODEL 2
REMARK VINA RESULT:    -4.507      1.198      3.550
REMARK INTER + INTRA:          -5.677
REMARK INTER:                  -5.437
REMARK INTRA:                  -0.240
REMARK UNBOUND:                -0.247
REMARK  6 active torsions:
REMARK  status: ('A' for Active; 'I' for Inactive)
REMARK    1  A    between atoms: C_1  and  C_2 
REMARK    2  A    between atoms: C_1  and  O_7 
REMARK    3  A    between atoms: C_2  and  O_9 
REMARK    4  A    between atoms: C_3  and  O_11 
REMARK    5  A    between atoms: C_4  and  O_13 
REMARK    6  A    between atoms: C_5  and  O_15 
ROOT
HETATM    1  C   UNL     1      -2.580   4.245 -19.296  1.00  0.00     0.212 C 
HETATM    2  C   UNL     1      -2.336   4.881 -17.920  1.00  0.00     0.213 C 
HETATM    3  C   UNL     1      -3.243   6.095 -17.724  1.00  0.00     0.183 C 
HETATM    4  C   UNL     1      -4.696   5.701 -17.946  1.00  0.00     0.173 C 
HETATM    5  C   UNL     1      -4.832   5.082 -19.315  1.00  0.00     0.206 C 
HETATM    6  O   UNL     1      -3.963   3.939 -19.443  1.00  0.00    -0.349 OA
ENDROOT
BRANCH   1   7
HETATM    7  C   UNL     1      -1.840   2.925 -19.449  1.00  0.00     0.235 C 
BRANCH   7   8
HETATM    8  O   UNL     1      -0.454   3.134 -19.693  1.00  0.00    -0.395 OA
ATOM      9  HO  UNL     1       0.074   2.834 -18.962  1.00  0.00     0.209 HD
ENDBRANCH   7   8
ENDBRANCH   1   7
BRANCH   1  10
HETATM   10  O   UNL     1      -2.194   5.167 -20.280  1.00  0.00    -0.362 OA
ATOM     11  HO  UNL     1      -1.576   5.803 -19.938  1.00  0.00     0.213 HD
ENDBRANCH   1  10
BRANCH   2  12
HETATM   12  O   UNL     1      -0.971   5.271 -17.789  1.00  0.00    -0.387 OA
ATOM     13  HO  UNL     1      -0.398   4.539 -17.988  1.00  0.00     0.210 HD
ENDBRANCH   2  12
BRANCH   3  14
HETATM   14  O   UNL     1      -3.037   6.657 -16.432  1.00  0.00    -0.390 OA
ATOM     15  HO  UNL     1      -2.889   5.988 -15.774  1.00  0.00     0.210 HD
ENDBRANCH   3  14
BRANCH   4  16
HETATM   16  O   UNL     1      -5.142   4.725 -16.990  1.00  0.00    -0.391 OA
ATOM     17  HO  UNL     1      -5.899   4.289 -17.363  1.00  0.00     0.210 HD
ENDBRANCH   4  16
TORSDOF 6
ENDMDL
MODEL 3
REMARK VINA RESULT:    -4.129      1.539      3.498
REMARK INTER + INTRA:          -5.221
REMARK INTER:                  -4.975
REMARK INTRA:                  -0.246
REMARK UNBOUND:                -0.247
REMARK  6 active torsions:
REMARK  status: ('A' for Active; 'I' for Inactive)
REMARK    1  A    between atoms: C_1  and  C_2 
REMARK    2  A    between atoms: C_1  and  O_7 
REMARK    3  A    between atoms: C_2  and  O_9 
REMARK    4  A    between atoms: C_3  and  O_11 
REMARK    5  A    between atoms: C_4  and  O_13 
REMARK    6  A    between atoms: C_5  and  O_15 
ROOT
HETATM    1  C   UNL     1      -3.183   3.682 -19.285  1.00  0.00     0.212 C 
HETATM    2  C   UNL     1      -1.988   4.209 -18.478  1.00  0.00     0.213 C 
HETATM    3  C   UNL     1      -2.315   5.570 -17.865  1.00  0.00     0.183 C 
HETATM    4  C   UNL     1      -3.591   5.476 -17.041  1.00  0.00     0.173 C 
HETATM    5  C   UNL     1      -4.700   4.945 -17.914  1.00  0.00     0.206 C 
HETATM    6  O   UNL     1      -4.344   3.659 -18.459  1.00  0.00    -0.349 OA
ENDROOT
BRANCH   1   7
HETATM    7  C   UNL     1      -2.968   2.249 -19.746  1.00  0.00     0.235 C 
BRANCH   7   8
HETATM    8  O   UNL     1      -1.895   1.635 -19.044  1.00  0.00    -0.395 OA
ATOM      9  HO  UNL     1      -1.337   2.283 -18.629  1.00  0.00     0.209 HD
ENDBRANCH   7   8
ENDBRANCH   1   7
BRANCH   1  10
HETATM   10  O   UNL     1      -3.395   4.544 -20.371  1.00  0.00    -0.362 OA
ATOM     11  HO  UNL     1      -2.678   4.502 -20.993  1.00  0.00     0.213 HD
ENDBRANCH   1  10
BRANCH   2  12
HETATM   12  O   UNL     1      -0.837   4.319 -19.312  1.00  0.00    -0.387 OA
ATOM     13  HO  UNL     1      -0.491   3.457 -19.514  1.00  0.00     0.210 HD
ENDBRANCH   2  12
BRANCH   3  14
HETATM   14  O   UNL     1      -1.216   6.035 -17.090  1.00  0.00    -0.390 OA
ATOM     15  HO  UNL     1      -0.667   5.320 -16.789  1.00  0.00     0.210 HD
ENDBRANCH   3  14
BRANCH   4  16
HETATM   16  O   UNL     1      -3.451   4.574 -15.931  1.00  0.00    -0.391 OA
ATOM     17  HO  UNL     1      -4.002   4.902 -15.229  1.00  0.00     0.210 HD
ENDBRANCH   4  16
TORSDOF 6
ENDMDL
MODEL 4
REMARK VINA RESULT:    -4.089     14.001     15.876
REMARK INTER + INTRA:          -5.173
REMARK INTER:                  -5.121
REMARK INTRA:                  -0.052
REMARK UNBOUND:                -0.247
REMARK  6 active torsions:
REMARK  status: ('A' for Active; 'I' for Inactive)
REMARK    1  A    between atoms: C_1  and  C_2 
REMARK    2  A    between atoms: C_1  and  O_7 
REMARK    3  A    between atoms: C_2  and  O_9 
REMARK    4  A    between atoms: C_3  and  O_11 
REMARK    5  A    between atoms: C_4  and  O_13 
REMARK    6  A    between atoms: C_5  and  O_15 
ROOT
HETATM    1  C   UNL     1       8.981  -2.840 -17.237  1.00  0.00     0.212 C 
HETATM    2  C   UNL     1       8.780  -3.945 -18.285  1.00  0.00     0.213 C 
HETATM    3  C   UNL     1      10.067  -4.750 -18.466  1.00  0.00     0.183 C 
HETATM    4  C   UNL     1      10.538  -5.287 -17.122  1.00  0.00     0.173 C 
HETATM    5  C   UNL     1      10.698  -4.133 -16.163  1.00  0.00     0.206 C 
HETATM    6  O   UNL     1       9.457  -3.414 -16.023  1.00  0.00    -0.349 OA
ENDROOT
BRANCH   1   7
HETATM    7  C   UNL     1       7.673  -2.146 -16.889  1.00  0.00     0.235 C 
BRANCH   7   8
HETATM    8  O   UNL     1       7.695  -0.778 -17.275  1.00  0.00    -0.395 OA
ATOM      9  HO  UNL     1       7.494  -0.208 -16.541  1.00  0.00     0.209 HD
ENDBRANCH   7   8
ENDBRANCH   1   7
BRANCH   1  10
HETATM   10  O   UNL     1       9.928  -1.932 -17.732  1.00  0.00    -0.362 OA
ATOM     11  HO  UNL     1      10.058  -1.205 -17.133  1.00  0.00     0.213 HD
ENDBRANCH   1  10
BRANCH   2  12
HETATM   12  O   UNL     1       8.385  -3.379 -19.532  1.00  0.00    -0.387 OA
ATOM     13  HO  UNL     1       7.438  -3.372 -19.607  1.00  0.00     0.210 HD
ENDBRANCH   2  12
BRANCH   3  14
HETATM   14  O   UNL     1       9.862  -5.793 -19.411  1.00  0.00    -0.390 OA
ATOM     15  HO  UNL     1      10.087  -6.645 -19.055  1.00  0.00     0.210 HD
ENDBRANCH   3  14
BRANCH   4  16
HETATM   16  O   UNL     1       9.589  -6.196 -16.541  1.00  0.00    -0.391 OA
ATOM     17  HO  UNL     1       8.825  -6.205 -17.106  1.00  0.00     0.210 HD
ENDBRANCH   4  16
TORSDOF 6
ENDMDL
MODEL 5
REMARK VINA RESULT:    -3.936      1.533      2.671
REMARK INTER + INTRA:          -4.989
REMARK INTER:                  -4.782
REMARK INTRA:                  -0.206
REMARK UNBOUND:                -0.247
REMARK  6 active torsions:
REMARK  status: ('A' for Active; 'I' for Inactive)
REMARK    1  A    between atoms: C_1  and  C_2 
REMARK    2  A    between atoms: C_1  and  O_7 
REMARK    3  A    between atoms: C_2  and  O_9 
REMARK    4  A    between atoms: C_3  and  O_11 
REMARK    5  A    between atoms: C_4  and  O_13 
REMARK    6  A    between atoms: C_5  and  O_15 
ROOT
HETATM    1  C   UNL     1      -3.719   4.970 -17.362  1.00  0.00     0.212 C 
HETATM    2  C   UNL     1      -2.712   4.425 -18.385  1.00  0.00     0.213 C 
HETATM    3  C   UNL     1      -2.796   2.901 -18.458  1.00  0.00     0.183 C 
HETATM    4  C   UNL     1      -4.227   2.472 -18.749  1.00  0.00     0.173 C 
HETATM    5  C   UNL     1      -5.137   3.060 -17.699  1.00  0.00     0.206 C 
HETATM    6  O   UNL     1      -5.025   4.497 -17.678  1.00  0.00    -0.349 OA
ENDROOT
BRANCH   1   7
HETATM    7  C   UNL     1      -3.802   6.488 -17.402  1.00  0.00     0.235 C 
BRANCH   7   8
HETATM    8  O   UNL     1      -2.903   7.081 -16.474  1.00  0.00    -0.395 OA
ATOM      9  HO  UNL     1      -3.302   7.821 -16.030  1.00  0.00     0.209 HD
ENDBRANCH   7   8
ENDBRANCH   1   7
BRANCH   1  10
HETATM   10  O   UNL     1      -3.346   4.511 -16.091  1.00  0.00    -0.362 OA
ATOM     11  HO  UNL     1      -2.538   4.011 -16.124  1.00  0.00     0.213 HD
ENDBRANCH   1  10
BRANCH   2  12
HETATM   12  O   UNL     1      -1.387   4.820 -18.035  1.00  0.00    -0.387 OA
ATOM     13  HO  UNL     1      -1.393   5.689 -17.650  1.00  0.00     0.210 HD
ENDBRANCH   2  12
BRANCH   3  14
HETATM   14  O   UNL     1      -1.885   2.407 -19.434  1.00  0.00    -0.390 OA
ATOM     15  HO  UNL     1      -2.312   2.245 -20.267  1.00  0.00     0.210 HD
ENDBRANCH   3  14
BRANCH   4  16
HETATM   16  O   UNL     1      -4.684   2.948 -20.025  1.00  0.00    -0.391 OA
ATOM     17  HO  UNL     1      -5.122   2.223 -20.456  1.00  0.00     0.210 HD
ENDBRANCH   4  16
TORSDOF 6
ENDMDL
MODEL 6
REMARK VINA RESULT:    -3.885     18.294     20.348
REMARK INTER + INTRA:          -4.927
REMARK INTER:                  -4.729
REMARK INTRA:                  -0.198
REMARK UNBOUND:                -0.247
REMARK  6 active torsions:
REMARK  status: ('A' for Active; 'I' for Inactive)
REMARK    1  A    between atoms: C_1  and  C_2 
REMARK    2  A    between atoms: C_1  and  O_7 
REMARK    3  A    between atoms: C_2  and  O_9 
REMARK    4  A    between atoms: C_3  and  O_11 
REMARK    5  A    between atoms: C_4  and  O_13 
REMARK    6  A    between atoms: C_5  and  O_15 
ROOT
HETATM    1  C   UNL     1      14.973  -4.845 -18.749  1.00  0.00     0.212 C 
HETATM    2  C   UNL     1      13.952  -3.838 -18.203  1.00  0.00     0.213 C 
HETATM    3  C   UNL     1      12.542  -4.198 -18.672  1.00  0.00     0.183 C 
HETATM    4  C   UNL     1      12.219  -5.636 -18.291  1.00  0.00     0.173 C 
HETATM    5  C   UNL     1      13.278  -6.544 -18.865  1.00  0.00     0.206 C 
HETATM    6  O   UNL     1      14.584  -6.167 -18.385  1.00  0.00    -0.349 OA
ENDROOT
BRANCH   1   7
HETATM    7  C   UNL     1      16.354  -4.635 -18.147  1.00  0.00     0.235 C 
BRANCH   7   8
HETATM    8  O   UNL     1      16.367  -3.526 -17.257  1.00  0.00    -0.395 OA
ATOM      9  HO  UNL     1      17.231  -3.392 -16.885  1.00  0.00     0.209 HD
ENDBRANCH   7   8
ENDBRANCH   1   7
BRANCH   1  10
HETATM   10  O   UNL     1      15.000  -4.731 -20.146  1.00  0.00    -0.362 OA
ATOM     11  HO  UNL     1      14.517  -3.968 -20.442  1.00  0.00     0.213 HD
ENDBRANCH   1  10
BRANCH   2  12
HETATM   12  O   UNL     1      14.280  -2.518 -18.630  1.00  0.00    -0.387 OA
ATOM     13  HO  UNL     1      13.527  -2.105 -19.036  1.00  0.00     0.210 HD
ENDBRANCH   2  12
BRANCH   3  14
HETATM   14  O   UNL     1      11.598  -3.281 -18.133  1.00  0.00    -0.390 OA
ATOM     15  HO  UNL     1      11.992  -2.439 -17.938  1.00  0.00     0.210 HD
ENDBRANCH   3  14
BRANCH   4  16
HETATM   16  O   UNL     1      12.215  -5.829 -16.868  1.00  0.00    -0.391 OA
ATOM     17  HO  UNL     1      12.943  -6.402 -16.658  1.00  0.00     0.210 HD
ENDBRANCH   4  16
TORSDOF 6
ENDMDL
MODEL 7
REMARK VINA RESULT:    -3.883     15.274     16.507
REMARK INTER + INTRA:          -4.925
REMARK INTER:                  -4.701
REMARK INTRA:                  -0.224
REMARK UNBOUND:                -0.247
REMARK  6 active torsions:
REMARK  status: ('A' for Active; 'I' for Inactive)
REMARK    1  A    between atoms: C_1  and  C_2 
REMARK    2  A    between atoms: C_1  and  O_7 
REMARK    3  A    between atoms: C_2  and  O_9 
REMARK    4  A    between atoms: C_3  and  O_11 
REMARK    5  A    between atoms: C_4  and  O_13 
REMARK    6  A    between atoms: C_5  and  O_15 
ROOT
HETATM    1  C   UNL     1      10.384  -3.736 -17.791  1.00  0.00     0.212 C 
HETATM    2  C   UNL     1      10.172  -4.200 -16.343  1.00  0.00     0.213 C 
HETATM    3  C   UNL     1       8.786  -3.786 -15.847  1.00  0.00     0.183 C 
HETATM    4  C   UNL     1       7.717  -4.304 -16.798  1.00  0.00     0.173 C 
HETATM    5  C   UNL     1       8.015  -3.803 -18.189  1.00  0.00     0.206 C 
HETATM    6  O   UNL     1       9.327  -4.227 -18.611  1.00  0.00    -0.349 OA
ENDROOT
BRANCH   1   7
HETATM    7  C   UNL     1      11.668  -4.297 -18.383  1.00  0.00     0.235 C 
BRANCH   7   8
HETATM    8  O   UNL     1      12.776  -3.448 -18.113  1.00  0.00    -0.395 OA
ATOM      9  HO  UNL     1      13.583  -3.812 -18.459  1.00  0.00     0.209 HD
ENDBRANCH   7   8
ENDBRANCH   1   7
BRANCH   1  10
HETATM   10  O   UNL     1      10.381  -2.334 -17.808  1.00  0.00    -0.362 OA
ATOM     11  HO  UNL     1       9.998  -1.977 -17.015  1.00  0.00     0.213 HD
ENDBRANCH   1  10
BRANCH   2  12
HETATM   12  O   UNL     1      11.175  -3.648 -15.494  1.00  0.00    -0.387 OA
ATOM     13  HO  UNL     1      11.793  -4.320 -15.233  1.00  0.00     0.210 HD
ENDBRANCH   2  12
BRANCH   3  14
HETATM   14  O   UNL     1       8.584  -4.251 -14.517  1.00  0.00    -0.390 OA
ATOM     15  HO  UNL     1       9.406  -4.410 -14.068  1.00  0.00     0.210 HD
ENDBRANCH   3  14
BRANCH   4  16
HETATM   16  O   UNL     1       7.695  -5.739 -16.856  1.00  0.00    -0.391 OA
ATOM     17  HO  UNL     1       6.785  -6.006 -16.917  1.00  0.00     0.210 HD
ENDBRANCH   4  16
TORSDOF 6
ENDMDL
MODEL 8
REMARK VINA RESULT:    -3.859     10.124     11.677
REMARK INTER + INTRA:          -4.897
REMARK INTER:                  -4.685
REMARK INTRA:                  -0.212
REMARK UNBOUND:                -0.247
REMARK  6 active torsions:
REMARK  status: ('A' for Active; 'I' for Inactive)
REMARK    1  A    between atoms: C_1  and  C_2 
REMARK    2  A    between atoms: C_1  and  O_7 
REMARK    3  A    between atoms: C_2  and  O_9 
REMARK    4  A    between atoms: C_3  and  O_11 
REMARK    5  A    between atoms: C_4  and  O_13 
REMARK    6  A    between atoms: C_5  and  O_15 
ROOT
HETATM    1  C   UNL     1       6.113   5.506 -24.694  1.00  0.00     0.212 C 
HETATM    2  C   UNL     1       5.604   4.711 -23.483  1.00  0.00     0.213 C 
HETATM    3  C   UNL     1       5.422   3.238 -23.849  1.00  0.00     0.183 C 
HETATM    4  C   UNL     1       6.717   2.680 -24.424  1.00  0.00     0.173 C 
HETATM    5  C   UNL     1       7.137   3.529 -25.598  1.00  0.00     0.206 C 
HETATM    6  O   UNL     1       7.302   4.904 -25.197  1.00  0.00    -0.349 OA
ENDROOT
BRANCH   1   7
HETATM    7  C   UNL     1       6.491   6.930 -24.319  1.00  0.00     0.235 C 
BRANCH   7   8
HETATM    8  O   UNL     1       6.982   7.001 -22.986  1.00  0.00    -0.395 OA
ATOM      9  HO  UNL     1       6.342   7.392 -22.402  1.00  0.00     0.209 HD
ENDBRANCH   7   8
ENDBRANCH   1   7
BRANCH   1  10
HETATM   10  O   UNL     1       5.119   5.483 -25.684  1.00  0.00    -0.362 OA
ATOM     11  HO  UNL     1       4.292   5.168 -25.339  1.00  0.00     0.213 HD
ENDBRANCH   1  10
BRANCH   2  12
HETATM   12  O   UNL     1       4.369   5.250 -23.020  1.00  0.00    -0.387 OA
ATOM     13  HO  UNL     1       3.928   5.716 -23.721  1.00  0.00     0.210 HD
ENDBRANCH   2  12
BRANCH   3  14
HETATM   14  O   UNL     1       4.985   2.502 -22.713  1.00  0.00    -0.390 OA
ATOM     15  HO  UNL     1       4.916   1.572 -22.897  1.00  0.00     0.210 HD
ENDBRANCH   3  14
BRANCH   4  16
HETATM   16  O   UNL     1       7.788   2.713 -23.467  1.00  0.00    -0.391 OA
ATOM     17  HO  UNL     1       7.784   1.881 -23.009  1.00  0.00     0.210 HD
ENDBRANCH   4  16
TORSDOF 6
ENDMDL
MODEL 9
REMARK VINA RESULT:    -3.835      7.149      9.174
REMARK INTER + INTRA:          -4.867
REMARK INTER:                  -4.824
REMARK INTRA:                  -0.043
REMARK UNBOUND:                -0.247
REMARK  6 active torsions:
REMARK  status: ('A' for Active; 'I' for Inactive)
REMARK    1  A    between atoms: C_1  and  C_2 
REMARK    2  A    between atoms: C_1  and  O_7 
REMARK    3  A    between atoms: C_2  and  O_9 
REMARK    4  A    between atoms: C_3  and  O_11 
REMARK    5  A    between atoms: C_4  and  O_13 
REMARK    6  A    between atoms: C_5  and  O_15 
ROOT
HETATM    1  C   UNL     1       2.639   3.801 -23.105  1.00  0.00     0.212 C 
HETATM    2  C   UNL     1       3.866   2.969 -22.707  1.00  0.00     0.213 C 
HETATM    3  C   UNL     1       5.005   3.186 -23.703  1.00  0.00     0.183 C 
HETATM    4  C   UNL     1       5.312   4.672 -23.827  1.00  0.00     0.173 C 
HETATM    5  C   UNL     1       4.049   5.401 -24.212  1.00  0.00     0.206 C 
HETATM    6  O   UNL     1       3.012   5.170 -23.238  1.00  0.00    -0.349 OA
ENDROOT
BRANCH   1   7
HETATM    7  C   UNL     1       1.558   3.763 -22.036  1.00  0.00     0.235 C 
BRANCH   7   8
HETATM    8  O   UNL     1       1.286   5.063 -21.528  1.00  0.00    -0.395 OA
ATOM      9  HO  UNL     1       0.606   5.496 -22.032  1.00  0.00     0.209 HD
ENDBRANCH   7   8
ENDBRANCH   1   7
BRANCH   1  10
HETATM   10  O   UNL     1       2.163   3.322 -24.334  1.00  0.00    -0.362 OA
ATOM     11  HO  UNL     1       2.031   2.381 -24.313  1.00  0.00     0.213 HD
ENDBRANCH   1  10
BRANCH   2  12
HETATM   12  O   UNL     1       3.529   1.584 -22.653  1.00  0.00    -0.387 OA
ATOM     13  HO  UNL     1       3.922   1.120 -23.382  1.00  0.00     0.210 HD
ENDBRANCH   2  12
BRANCH   3  14
HETATM   14  O   UNL     1       6.150   2.439 -23.307  1.00  0.00    -0.390 OA
ATOM     15  HO  UNL     1       6.532   1.962 -24.035  1.00  0.00     0.210 HD
ENDBRANCH   3  14
BRANCH   4  16
HETATM   16  O   UNL     1       5.769   5.233 -22.586  1.00  0.00    -0.391 OA
ATOM     17  HO  UNL     1       6.230   6.038 -22.792  1.00  0.00     0.210 HD
ENDBRANCH   4  16
TORSDOF 6
ENDMDL
MODEL 10
REMARK VINA RESULT:    -3.802     13.563     15.230
REMARK INTER + INTRA:          -4.828
REMARK INTER:                  -4.585
REMARK INTRA:                  -0.243
REMARK UNBOUND:                -0.247
REMARK  6 active torsions:
REMARK  status: ('A' for Active; 'I' for Inactive)
REMARK    1  A    between atoms: C_1  and  C_2 
REMARK    2  A    between atoms: C_1  and  O_7 
REMARK    3  A    between atoms: C_2  and  O_9 
REMARK    4  A    between atoms: C_3  and  O_11 
REMARK    5  A    between atoms: C_4  and  O_13 
REMARK    6  A    between atoms: C_5  and  O_15 
ROOT
HETATM    1  C   UNL     1       8.950  -2.946 -17.394  1.00  0.00     0.212 C 
HETATM    2  C   UNL     1       7.603  -3.539 -16.956  1.00  0.00     0.213 C 
HETATM    3  C   UNL     1       7.783  -4.982 -16.484  1.00  0.00     0.183 C 
HETATM    4  C   UNL     1       8.841  -5.044 -15.392  1.00  0.00     0.173 C 
HETATM    5  C   UNL     1      10.118  -4.434 -15.913  1.00  0.00     0.206 C 
HETATM    6  O   UNL     1       9.895  -3.074 -16.336  1.00  0.00    -0.349 OA
ENDROOT
BRANCH   1   7
HETATM    7  C   UNL     1       8.845  -1.457 -17.684  1.00  0.00     0.235 C 
BRANCH   7   8
HETATM    8  O   UNL     1       7.611  -0.924 -17.218  1.00  0.00    -0.395 OA
ATOM      9  HO  UNL     1       7.208  -1.496 -16.575  1.00  0.00     0.209 HD
ENDBRANCH   7   8
ENDBRANCH   1   7
BRANCH   1  10
HETATM   10  O   UNL     1       9.400  -3.657 -18.516  1.00  0.00    -0.362 OA
ATOM     11  HO  UNL     1       9.505  -3.087 -19.269  1.00  0.00     0.213 HD
ENDBRANCH   1  10
BRANCH   2  12
HETATM   12  O   UNL     1       6.669  -3.496 -18.033  1.00  0.00    -0.387 OA
ATOM     13  HO  UNL     1       6.664  -2.633 -18.431  1.00  0.00     0.210 HD
ENDBRANCH   2  12
BRANCH   3  14
HETATM   14  O   UNL     1       6.537  -5.513 -16.047  1.00  0.00    -0.390 OA
ATOM     15  HO  UNL     1       5.974  -4.841 -15.680  1.00  0.00     0.210 HD
ENDBRANCH   3  14
BRANCH   4  16
HETATM   16  O   UNL     1       8.456  -4.299 -14.225  1.00  0.00    -0.391 OA
ATOM     17  HO  UNL     1       9.082  -4.503 -13.540  1.00  0.00     0.210 HD
ENDBRANCH   4  16
TORSDOF 6
ENDMDL
MODEL 11
REMARK VINA RESULT:    -3.779     15.594     17.393
REMARK INTER + INTRA:          -4.799
REMARK INTER:                  -4.598
REMARK INTRA:                  -0.201
REMARK UNBOUND:                -0.247
REMARK  6 active torsions:
REMARK  status: ('A' for Active; 'I' for Inactive)
REMARK    1  A    between atoms: C_1  and  C_2 
REMARK    2  A    between atoms: C_1  and  O_7 
REMARK    3  A    between atoms: C_2  and  O_9 
REMARK    4  A    between atoms: C_3  and  O_11 
REMARK    5  A    between atoms: C_4  and  O_13 
REMARK    6  A    between atoms: C_5  and  O_15 
ROOT
HETATM    1  C   UNL     1      10.196  -3.825 -16.952  1.00  0.00     0.212 C 
HETATM    2  C   UNL     1      11.049  -4.168 -18.181  1.00  0.00     0.213 C 
HETATM    3  C   UNL     1      11.894  -5.414 -17.914  1.00  0.00     0.183 C 
HETATM    4  C   UNL     1      11.000  -6.564 -17.473  1.00  0.00     0.173 C 
HETATM    5  C   UNL     1      10.201  -6.130 -16.270  1.00  0.00     0.206 C 
HETATM    6  O   UNL     1       9.418  -4.959 -16.578  1.00  0.00    -0.349 OA
ENDROOT
BRANCH   1   7
HETATM    7  C   UNL     1       9.201  -2.713 -17.245  1.00  0.00     0.235 C 
BRANCH   7   8
HETATM    8  O   UNL     1       9.863  -1.517 -17.639  1.00  0.00    -0.395 OA
ATOM      9  HO  UNL     1      10.301  -1.624 -18.475  1.00  0.00     0.209 HD
ENDBRANCH   7   8
ENDBRANCH   1   7
BRANCH   1  10
HETATM   10  O   UNL     1      11.058  -3.479 -15.901  1.00  0.00    -0.362 OA
ATOM     11  HO  UNL     1      10.938  -2.573 -15.638  1.00  0.00     0.213 HD
ENDBRANCH   1  10
BRANCH   2  12
HETATM   12  O   UNL     1      11.896  -3.072 -18.517  1.00  0.00    -0.387 OA
ATOM     13  HO  UNL     1      12.809  -3.334 -18.472  1.00  0.00     0.210 HD
ENDBRANCH   2  12
BRANCH   3  14
HETATM   14  O   UNL     1      12.654  -5.746 -19.070  1.00  0.00    -0.390 OA
ATOM     15  HO  UNL     1      12.884  -4.975 -19.577  1.00  0.00     0.210 HD
ENDBRANCH   3  14
BRANCH   4  16
HETATM   16  O   UNL     1      10.063  -6.942 -18.496  1.00  0.00    -0.391 OA
ATOM     17  HO  UNL     1       9.221  -6.574 -18.257  1.00  0.00     0.210 HD
ENDBRANCH   4  16
TORSDOF 6
ENDMDL
MODEL 12
REMARK VINA RESULT:    -3.735      1.468      3.137
REMARK INTER + INTRA:          -4.746
REMARK INTER:                  -4.704
REMARK INTRA:                  -0.042
REMARK UNBOUND:                -0.247
REMARK  6 active torsions:
REMARK  status: ('A' for Active; 'I' for Inactive)
REMARK    1  A    between atoms: C_1  and  C_2 
REMARK    2  A    between atoms: C_1  and  O_7 
REMARK    3  A    between atoms: C_2  and  O_9 
REMARK    4  A    between atoms: C_3  and  O_11 
REMARK    5  A    between atoms: C_4  and  O_13 
REMARK    6  A    between atoms: C_5  and  O_15 
ROOT
HETATM    1  C   UNL     1      -4.393   3.936 -17.793  1.00  0.00     0.212 C 
HETATM    2  C   UNL     1      -3.053   3.404 -18.321  1.00  0.00     0.213 C 
HETATM    3  C   UNL     1      -2.169   4.557 -18.795  1.00  0.00     0.183 C 
HETATM    4  C   UNL     1      -2.003   5.578 -17.678  1.00  0.00     0.173 C 
HETATM    5  C   UNL     1      -3.368   6.034 -17.225  1.00  0.00     0.206 C 
HETATM    6  O   UNL     1      -4.156   4.911 -16.782  1.00  0.00    -0.349 OA
ENDROOT
BRANCH   1   7
HETATM    7  C   UNL     1      -5.218   2.841 -17.135  1.00  0.00     0.235 C 
BRANCH   7   8
HETATM    8  O   UNL     1      -5.573   3.190 -15.803  1.00  0.00    -0.395 OA
ATOM      9  HO  UNL     1      -5.474   4.123 -15.652  1.00  0.00     0.209 HD
ENDBRANCH   7   8
ENDBRANCH   1   7
BRANCH   1  10
HETATM   10  O   UNL     1      -5.083   4.526 -18.862  1.00  0.00    -0.362 OA
ATOM     11  HO  UNL     1      -5.429   3.870 -19.457  1.00  0.00     0.213 HD
ENDBRANCH   1  10
BRANCH   2  12
HETATM   12  O   UNL     1      -3.270   2.489 -19.393  1.00  0.00    -0.387 OA
ATOM     13  HO  UNL     1      -3.763   2.908 -20.089  1.00  0.00     0.210 HD
ENDBRANCH   2  12
BRANCH   3  14
HETATM   14  O   UNL     1      -0.916   4.059 -19.249  1.00  0.00    -0.390 OA
ATOM     15  HO  UNL     1      -0.463   4.686 -19.801  1.00  0.00     0.210 HD
ENDBRANCH   3  14
BRANCH   4  16
HETATM   16  O   UNL     1      -1.335   5.023 -16.534  1.00  0.00    -0.391 OA
ATOM     17  HO  UNL     1      -0.629   4.476 -16.857  1.00  0.00     0.210 HD
ENDBRANCH   4  16
TORSDOF 6
ENDMDL
MODEL 13
REMARK VINA RESULT:    -3.706     13.369     15.112
REMARK INTER + INTRA:          -4.712
REMARK INTER:                  -4.471
REMARK INTRA:                  -0.241
REMARK UNBOUND:                -0.247
REMARK  6 active torsions:
REMARK  status: ('A' for Active; 'I' for Inactive)
REMARK    1  A    between atoms: C_1  and  C_2 
REMARK    2  A    between atoms: C_1  and  O_7 
REMARK    3  A    between atoms: C_2  and  O_9 
REMARK    4  A    between atoms: C_3  and  O_11 
REMARK    5  A    between atoms: C_4  and  O_13 
REMARK    6  A    between atoms: C_5  and  O_15 
ROOT
HETATM    1  C   UNL     1       7.288  -3.793 -17.524  1.00  0.00     0.212 C 
HETATM    2  C   UNL     1       8.489  -3.927 -18.470  1.00  0.00     0.213 C 
HETATM    3  C   UNL     1       9.777  -3.509 -17.761  1.00  0.00     0.183 C 
HETATM    4  C   UNL     1       9.944  -4.305 -16.475  1.00  0.00     0.173 C 
HETATM    5  C   UNL     1       8.717  -4.117 -15.619  1.00  0.00     0.206 C 
HETATM    6  O   UNL     1       7.534  -4.533 -16.331  1.00  0.00    -0.349 OA
ENDROOT
BRANCH   1   7
HETATM    7  C   UNL     1       6.022  -4.382 -18.128  1.00  0.00     0.235 C 
BRANCH   7   8
HETATM    8  O   UNL     1       5.439  -3.496 -19.074  1.00  0.00    -0.395 OA
ATOM      9  HO  UNL     1       5.969  -2.715 -19.190  1.00  0.00     0.209 HD
ENDBRANCH   7   8
ENDBRANCH   1   7
BRANCH   1  10
HETATM   10  O   UNL     1       7.123  -2.436 -17.211  1.00  0.00    -0.362 OA
ATOM     11  HO  UNL     1       6.345  -2.293 -16.683  1.00  0.00     0.213 HD
ENDBRANCH   1  10
BRANCH   2  12
HETATM   12  O   UNL     1       8.295  -3.125 -19.633  1.00  0.00    -0.387 OA
ATOM     13  HO  UNL     1       8.204  -3.675 -20.402  1.00  0.00     0.210 HD
ENDBRANCH   2  12
BRANCH   3  14
HETATM   14  O   UNL     1      10.890  -3.670 -18.633  1.00  0.00    -0.390 OA
ATOM     15  HO  UNL     1      11.714  -3.669 -18.161  1.00  0.00     0.210 HD
ENDBRANCH   3  14
BRANCH   4  16
HETATM   16  O   UNL     1      10.079  -5.714 -16.726  1.00  0.00    -0.391 OA
ATOM     17  HO  UNL     1      10.468  -5.811 -17.587  1.00  0.00     0.210 HD
ENDBRANCH   4  16
TORSDOF 6
ENDMDL
MODEL 14
REMARK VINA RESULT:    -3.703     13.948     15.939
REMARK INTER + INTRA:          -4.709
REMARK INTER:                  -4.498
REMARK INTRA:                  -0.211
REMARK UNBOUND:                -0.247
REMARK  6 active torsions:
REMARK  status: ('A' for Active; 'I' for Inactive)
REMARK    1  A    between atoms: C_1  and  C_2 
REMARK    2  A    between atoms: C_1  and  O_7 
REMARK    3  A    between atoms: C_2  and  O_9 
REMARK    4  A    between atoms: C_3  and  O_11 
REMARK    5  A    between atoms: C_4  and  O_13 
REMARK    6  A    between atoms: C_5  and  O_15 
ROOT
HETATM    1  C   UNL     1       9.316  -4.972 -16.934  1.00  0.00     0.212 C 
HETATM    2  C   UNL     1       9.339  -3.911 -18.043  1.00  0.00     0.213 C 
HETATM    3  C   UNL     1       8.255  -4.198 -19.081  1.00  0.00     0.183 C 
HETATM    4  C   UNL     1       6.899  -4.313 -18.398  1.00  0.00     0.173 C 
HETATM    5  C   UNL     1       6.979  -5.370 -17.326  1.00  0.00     0.206 C 
HETATM    6  O   UNL     1       8.009  -5.047 -16.371  1.00  0.00    -0.349 OA
ENDROOT
BRANCH   1   7
HETATM    7  C   UNL     1      10.247  -4.613 -15.786  1.00  0.00     0.235 C 
BRANCH   7   8
HETATM    8  O   UNL     1      10.900  -3.372 -16.018  1.00  0.00    -0.395 OA
ATOM      9  HO  UNL     1      11.137  -2.947 -15.201  1.00  0.00     0.209 HD
ENDBRANCH   7   8
ENDBRANCH   1   7
BRANCH   1  10
HETATM   10  O   UNL     1       9.655  -6.209 -17.501  1.00  0.00    -0.362 OA
ATOM     11  HO  UNL     1       8.885  -6.744 -17.655  1.00  0.00     0.213 HD
ENDBRANCH   1  10
BRANCH   2  12
HETATM   12  O   UNL     1      10.617  -3.882 -18.674  1.00  0.00    -0.387 OA
ATOM     13  HO  UNL     1      10.690  -4.589 -19.304  1.00  0.00     0.210 HD
ENDBRANCH   2  12
BRANCH   3  14
HETATM   14  O   UNL     1       8.260  -3.191 -20.085  1.00  0.00    -0.390 OA
ATOM     15  HO  UNL     1       8.137  -3.555 -20.954  1.00  0.00     0.210 HD
ENDBRANCH   3  14
BRANCH   4  16
HETATM   16  O   UNL     1       6.511  -3.085 -17.761  1.00  0.00    -0.391 OA
ATOM     17  HO  UNL     1       6.959  -3.047 -16.924  1.00  0.00     0.210 HD
ENDBRANCH   4  16
TORSDOF 6
ENDMDL
MODEL 15
REMARK VINA RESULT:    -3.702     13.999     15.799
REMARK INTER + INTRA:          -4.707
REMARK INTER:                  -4.462
REMARK INTRA:                  -0.244
REMARK UNBOUND:                -0.247
REMARK  6 active torsions:
REMARK  status: ('A' for Active; 'I' for Inactive)
REMARK    1  A    between atoms: C_1  and  C_2 
REMARK    2  A    between atoms: C_1  and  O_7 
REMARK    3  A    between atoms: C_2  and  O_9 
REMARK    4  A    between atoms: C_3  and  O_11 
REMARK    5  A    between atoms: C_4  and  O_13 
REMARK    6  A    between atoms: C_5  and  O_15 
ROOT
HETATM    1  C   UNL     1       8.634  -5.133 -15.736  1.00  0.00     0.212 C 
HETATM    2  C   UNL     1       9.431  -3.841 -15.961  1.00  0.00     0.213 C 
HETATM    3  C   UNL     1       9.473  -3.491 -17.449  1.00  0.00     0.183 C 
HETATM    4  C   UNL     1       8.058  -3.420 -18.006  1.00  0.00     0.173 C 
HETATM    5  C   UNL     1       7.357  -4.726 -17.730  1.00  0.00     0.206 C 
HETATM    6  O   UNL     1       7.339  -5.004 -16.316  1.00  0.00    -0.349 OA
ENDROOT
BRANCH   1   7
HETATM    7  C   UNL     1       8.405  -5.407 -14.257  1.00  0.00     0.235 C 
BRANCH   7   8
HETATM    8  O   UNL     1       8.513  -4.217 -13.487  1.00  0.00    -0.395 OA
ATOM      9  HO  UNL     1       9.346  -3.783 -13.636  1.00  0.00     0.209 HD
ENDBRANCH   7   8
ENDBRANCH   1   7
BRANCH   1  10
HETATM   10  O   UNL     1       9.322  -6.188 -16.352  1.00  0.00    -0.362 OA
ATOM     11  HO  UNL     1       8.760  -6.944 -16.478  1.00  0.00     0.213 HD
ENDBRANCH   1  10
BRANCH   2  12
HETATM   12  O   UNL     1      10.759  -3.984 -15.461  1.00  0.00    -0.387 OA
ATOM     13  HO  UNL     1      10.899  -3.401 -14.724  1.00  0.00     0.210 HD
ENDBRANCH   2  12
BRANCH   3  14
HETATM   14  O   UNL     1      10.183  -2.274 -17.645  1.00  0.00    -0.390 OA
ATOM     15  HO  UNL     1      11.061  -2.424 -17.976  1.00  0.00     0.210 HD
ENDBRANCH   3  14
BRANCH   4  16
HETATM   16  O   UNL     1       7.286  -2.380 -17.384  1.00  0.00    -0.391 OA
ATOM     17  HO  UNL     1       7.295  -1.633 -17.970  1.00  0.00     0.210 HD
ENDBRANCH   4  16
TORSDOF 6
ENDMDL
MODEL 16
REMARK VINA RESULT:    -3.665     14.030     15.468
REMARK INTER + INTRA:          -4.662
REMARK INTER:                  -4.414
REMARK INTRA:                  -0.247
REMARK UNBOUND:                -0.247
REMARK  6 active torsions:
REMARK  status: ('A' for Active; 'I' for Inactive)
REMARK    1  A    between atoms: C_1  and  C_2 
REMARK    2  A    between atoms: C_1  and  O_7 
REMARK    3  A    between atoms: C_2  and  O_9 
REMARK    4  A    between atoms: C_3  and  O_11 
REMARK    5  A    between atoms: C_4  and  O_13 
REMARK    6  A    between atoms: C_5  and  O_15 
ROOT
HETATM    1  C   UNL     1       8.097  -4.996 -17.408  1.00  0.00     0.212 C 
HETATM    2  C   UNL     1       8.016  -3.597 -18.035  1.00  0.00     0.213 C 
HETATM    3  C   UNL     1       8.787  -2.586 -17.188  1.00  0.00     0.183 C 
HETATM    4  C   UNL     1      10.218  -3.061 -16.984  1.00  0.00     0.173 C 
HETATM    5  C   UNL     1      10.194  -4.440 -16.374  1.00  0.00     0.206 C 
HETATM    6  O   UNL     1       9.463  -5.355 -17.215  1.00  0.00    -0.349 OA
ENDROOT
BRANCH   1   7
HETATM    7  C   UNL     1       7.510  -6.061 -18.321  1.00  0.00     0.235 C 
BRANCH   7   8
HETATM    8  O   UNL     1       7.403  -5.594 -19.660  1.00  0.00    -0.395 OA
ATOM      9  HO  UNL     1       7.047  -4.713 -19.692  1.00  0.00     0.209 HD
ENDBRANCH   7   8
ENDBRANCH   1   7
BRANCH   1  10
HETATM   10  O   UNL     1       7.440  -4.963 -16.170  1.00  0.00    -0.362 OA
ATOM     11  HO  UNL     1       8.049  -5.082 -15.450  1.00  0.00     0.213 HD
ENDBRANCH   1  10
BRANCH   2  12
HETATM   12  O   UNL     1       6.655  -3.188 -18.157  1.00  0.00    -0.387 OA
ATOM     13  HO  UNL     1       6.427  -3.071 -19.072  1.00  0.00     0.210 HD
ENDBRANCH   2  12
BRANCH   3  14
HETATM   14  O   UNL     1       8.736  -1.299 -17.794  1.00  0.00    -0.390 OA
ATOM     15  HO  UNL     1       7.971  -1.199 -18.350  1.00  0.00     0.210 HD
ENDBRANCH   3  14
BRANCH   4  16
HETATM   16  O   UNL     1      10.936  -3.155 -18.225  1.00  0.00    -0.391 OA
ATOM     17  HO  UNL     1      11.788  -3.530 -18.031  1.00  0.00     0.210 HD
ENDBRANCH   4  16
TORSDOF 6
ENDMDL
MODEL 17
REMARK VINA RESULT:    -3.661      4.723      6.978
REMARK INTER + INTRA:          -4.657
REMARK INTER:                  -4.451
REMARK INTRA:                  -0.206
REMARK UNBOUND:                -0.247
REMARK  6 active torsions:
REMARK  status: ('A' for Active; 'I' for Inactive)
REMARK    1  A    between atoms: C_1  and  C_2 
REMARK    2  A    between atoms: C_1  and  O_7 
REMARK    3  A    between atoms: C_2  and  O_9 
REMARK    4  A    between atoms: C_3  and  O_11 
REMARK    5  A    between atoms: C_4  and  O_13 
REMARK    6  A    between atoms: C_5  and  O_15 
ROOT
HETATM    1  C   UNL     1       1.823   3.072 -22.530  1.00  0.00     0.212 C 
HETATM    2  C   UNL     1       1.311   3.952 -21.381  1.00  0.00     0.213 C 
HETATM    3  C   UNL     1       0.081   3.319 -20.730  1.00  0.00     0.183 C 
HETATM    4  C   UNL     1       0.399   1.897 -20.291  1.00  0.00     0.173 C 
HETATM    5  C   UNL     1       0.899   1.117 -21.481  1.00  0.00     0.206 C 
HETATM    6  O   UNL     1       2.061   1.751 -22.051  1.00  0.00    -0.349 OA
ENDROOT
BRANCH   1   7
HETATM    7  C   UNL     1       3.154   3.567 -23.073  1.00  0.00     0.235 C 
BRANCH   7   8
HETATM    8  O   UNL     1       3.588   4.738 -22.392  1.00  0.00    -0.395 OA
ATOM      9  HO  UNL     1       4.143   5.275 -22.946  1.00  0.00     0.209 HD
ENDBRANCH   7   8
ENDBRANCH   1   7
BRANCH   1  10
HETATM   10  O   UNL     1       0.841   3.039 -23.530  1.00  0.00    -0.362 OA
ATOM     11  HO  UNL     1       0.086   3.566 -23.294  1.00  0.00     0.213 HD
ENDBRANCH   1  10
BRANCH   2  12
HETATM   12  O   UNL     1       0.987   5.255 -21.862  1.00  0.00    -0.387 OA
ATOM     13  HO  UNL     1       1.732   5.635 -22.312  1.00  0.00     0.210 HD
ENDBRANCH   2  12
BRANCH   3  14
HETATM   14  O   UNL     1      -0.366   4.123 -19.644  1.00  0.00    -0.390 OA
ATOM     15  HO  UNL     1      -1.311   4.096 -19.548  1.00  0.00     0.210 HD
ENDBRANCH   3  14
BRANCH   4  16
HETATM   16  O   UNL     1       1.430   1.859 -19.291  1.00  0.00    -0.391 OA
ATOM     17  HO  UNL     1       1.689   2.757 -19.117  1.00  0.00     0.210 HD
ENDBRANCH   4  16
TORSDOF 6
ENDMDL
MODEL 18
REMARK VINA RESULT:    -3.657     14.389     16.052
REMARK INTER + INTRA:          -4.652
REMARK INTER:                  -4.413
REMARK INTRA:                  -0.239
REMARK UNBOUND:                -0.247
REMARK  6 active torsions:
REMARK  status: ('A' for Active; 'I' for Inactive)
REMARK    1  A    between atoms: C_1  and  C_2 
REMARK    2  A    between atoms: C_1  and  O_7 
REMARK    3  A    between atoms: C_2  and  O_9 
REMARK    4  A    between atoms: C_3  and  O_11 
REMARK    5  A    between atoms: C_4  and  O_13 
REMARK    6  A    between atoms: C_5  and  O_15 
ROOT
HETATM    1  C   UNL     1       8.377  -4.695 -17.423  1.00  0.00     0.212 C 
HETATM    2  C   UNL     1       9.204  -3.855 -16.438  1.00  0.00     0.213 C 
HETATM    3  C   UNL     1      10.639  -4.376 -16.365  1.00  0.00     0.183 C 
HETATM    4  C   UNL     1      11.247  -4.424 -17.760  1.00  0.00     0.173 C 
HETATM    5  C   UNL     1      10.363  -5.262 -18.650  1.00  0.00     0.206 C 
HETATM    6  O   UNL     1       9.027  -4.723 -18.690  1.00  0.00    -0.349 OA
ENDROOT
BRANCH   1   7
HETATM    7  C   UNL     1       7.004  -4.090 -17.669  1.00  0.00     0.235 C 
BRANCH   7   8
HETATM    8  O   UNL     1       7.003  -2.689 -17.425  1.00  0.00    -0.395 OA
ATOM      9  HO  UNL     1       6.569  -2.481 -16.606  1.00  0.00     0.209 HD
ENDBRANCH   7   8
ENDBRANCH   1   7
BRANCH   1  10
HETATM   10  O   UNL     1       8.279  -5.998 -16.915  1.00  0.00    -0.362 OA
ATOM     11  HO  UNL     1       8.079  -6.625 -17.601  1.00  0.00     0.213 HD
ENDBRANCH   1  10
BRANCH   2  12
HETATM   12  O   UNL     1       8.611  -3.886 -15.142  1.00  0.00    -0.387 OA
ATOM     13  HO  UNL     1       7.995  -4.606 -15.077  1.00  0.00     0.210 HD
ENDBRANCH   2  12
BRANCH   3  14
HETATM   14  O   UNL     1      11.407  -3.571 -15.478  1.00  0.00    -0.390 OA
ATOM     15  HO  UNL     1      12.214  -3.271 -15.880  1.00  0.00     0.210 HD
ENDBRANCH   3  14
BRANCH   4  16
HETATM   16  O   UNL     1      11.338  -3.119 -18.353  1.00  0.00    -0.391 OA
ATOM     17  HO  UNL     1      11.492  -2.499 -17.650  1.00  0.00     0.210 HD
ENDBRANCH   4  16
TORSDOF 6
ENDMDL
MODEL 19
REMARK VINA RESULT:    -3.579      1.493      3.690
REMARK INTER + INTRA:          -4.558
REMARK INTER:                  -4.515
REMARK INTRA:                  -0.043
REMARK UNBOUND:                -0.247
REMARK  6 active torsions:
REMARK  status: ('A' for Active; 'I' for Inactive)
REMARK    1  A    between atoms: C_1  and  C_2 
REMARK    2  A    between atoms: C_1  and  O_7 
REMARK    3  A    between atoms: C_2  and  O_9 
REMARK    4  A    between atoms: C_3  and  O_11 
REMARK    5  A    between atoms: C_4  and  O_13 
REMARK    6  A    between atoms: C_5  and  O_15 
ROOT
HETATM    1  C   UNL     1      -2.670   4.152 -19.354  1.00  0.00     0.212 C 
HETATM    2  C   UNL     1      -3.317   5.519 -19.618  1.00  0.00     0.213 C 
HETATM    3  C   UNL     1      -4.444   5.779 -18.619  1.00  0.00     0.183 C 
HETATM    4  C   UNL     1      -3.921   5.635 -17.197  1.00  0.00     0.173 C 
HETATM    5  C   UNL     1      -3.301   4.269 -17.039  1.00  0.00     0.206 C 
HETATM    6  O   UNL     1      -2.242   4.079 -17.998  1.00  0.00    -0.349 OA
ENDROOT
BRANCH   1   7
HETATM    7  C   UNL     1      -1.424   3.942 -20.200  1.00  0.00     0.235 C 
BRANCH   7   8
HETATM    8  O   UNL     1      -0.245   4.002 -19.407  1.00  0.00    -0.395 OA
ATOM      9  HO  UNL     1      -0.432   3.816 -18.494  1.00  0.00     0.209 HD
ENDBRANCH   7   8
ENDBRANCH   1   7
BRANCH   1  10
HETATM   10  O   UNL     1      -3.629   3.158 -19.599  1.00  0.00    -0.362 OA
ATOM     11  HO  UNL     1      -4.341   3.486 -20.137  1.00  0.00     0.213 HD
ENDBRANCH   1  10
BRANCH   2  12
HETATM   12  O   UNL     1      -3.827   5.577 -20.948  1.00  0.00    -0.387 OA
ATOM     13  HO  UNL     1      -4.764   5.738 -20.936  1.00  0.00     0.210 HD
ENDBRANCH   2  12
BRANCH   3  14
HETATM   14  O   UNL     1      -5.014   7.063 -18.848  1.00  0.00    -0.390 OA
ATOM     15  HO  UNL     1      -5.265   7.183 -19.756  1.00  0.00     0.210 HD
ENDBRANCH   3  14
BRANCH   4  16
HETATM   16  O   UNL     1      -2.904   6.604 -16.895  1.00  0.00    -0.391 OA
ATOM     17  HO  UNL     1      -2.744   6.565 -15.960  1.00  0.00     0.210 HD
ENDBRANCH   4  16
TORSDOF 6
ENDMDL
MODEL 20
REMARK VINA RESULT:    -3.499     10.933     12.532
REMARK INTER + INTRA:          -4.463
REMARK INTER:                  -4.225
REMARK INTRA:                  -0.238
REMARK UNBOUND:                -0.247
REMARK  6 active torsions:
REMARK  status: ('A' for Active; 'I' for Inactive)
REMARK    1  A    between atoms: C_1  and  C_2 
REMARK    2  A    between atoms: C_1  and  O_7 
REMARK    3  A    between atoms: C_2  and  O_9 
REMARK    4  A    between atoms: C_3  and  O_11 
REMARK    5  A    between atoms: C_4  and  O_13 
REMARK    6  A    between atoms: C_5  and  O_15 
ROOT
HETATM    1  C   UNL     1       7.293   4.476 -24.594  1.00  0.00     0.212 C 
HETATM    2  C   UNL     1       6.022   5.202 -24.130  1.00  0.00     0.213 C 
HETATM    3  C   UNL     1       6.196   6.716 -24.253  1.00  0.00     0.183 C 
HETATM    4  C   UNL     1       6.602   7.080 -25.674  1.00  0.00     0.173 C 
HETATM    5  C   UNL     1       7.850   6.315 -26.037  1.00  0.00     0.206 C 
HETATM    6  O   UNL     1       7.629   4.895 -25.913  1.00  0.00    -0.349 OA
ENDROOT
BRANCH   1   7
HETATM    7  C   UNL     1       7.090   2.971 -24.671  1.00  0.00     0.235 C 
BRANCH   7   8
HETATM    8  O   UNL     1       7.056   2.386 -23.376  1.00  0.00    -0.395 OA
ATOM      9  HO  UNL     1       6.414   2.812 -22.819  1.00  0.00     0.209 HD
ENDBRANCH   7   8
ENDBRANCH   1   7
BRANCH   1  10
HETATM   10  O   UNL     1       8.334   4.809 -23.715  1.00  0.00    -0.362 OA
ATOM     11  HO  UNL     1       9.180   4.768 -24.147  1.00  0.00     0.213 HD
ENDBRANCH   1  10
BRANCH   2  12
HETATM   12  O   UNL     1       5.719   4.858 -22.780  1.00  0.00    -0.387 OA
ATOM     13  HO  UNL     1       5.268   4.023 -22.746  1.00  0.00     0.210 HD
ENDBRANCH   2  12
BRANCH   3  14
HETATM   14  O   UNL     1       5.002   7.379 -23.855  1.00  0.00    -0.390 OA
ATOM     15  HO  UNL     1       4.709   8.005 -24.508  1.00  0.00     0.210 HD
ENDBRANCH   3  14
BRANCH   4  16
HETATM   16  O   UNL     1       5.590   6.727 -26.630  1.00  0.00    -0.391 OA
ATOM     17  HO  UNL     1       6.029   6.549 -27.454  1.00  0.00     0.210 HD
ENDBRANCH   4  16
TORSDOF 6
ENDMDL
