MODEL 1
REMARK VINA RESULT:   -11.437      0.000      0.000
REMARK INTER + INTRA:         -16.592
REMARK INTER:                 -16.117
REMARK INTRA:                  -0.475
REMARK UNBOUND:                -0.475
REMARK  7 active torsions:
REMARK  status: ('A' for Active; 'I' for Inactive)
REMARK    1  A    between atoms: C_2  and  C_18 
REMARK    2  A    between atoms: C_3  and  N_35 
REMARK    3  A    between atoms: C_6  and  C_20 
REMARK    4  A    between atoms: C_10  and  C_11 
REMARK    5  A    between atoms: C_11  and  C_12 
REMARK    6  A    between atoms: C_11  and  N_30 
REMARK    7  A    between atoms: C_19  and  N_35 
ROOT
HETATM    1  C   UNL     1      48.441 -28.691  -2.301  1.00  0.00     0.061 C 
HETATM    2  C   UNL     1      46.963 -29.046  -2.524  1.00  0.00     0.151 C 
HETATM    3  N   UNL     1      49.522 -28.326  -2.236  1.00  0.00    -0.197 NA
ENDROOT
BRANCH   2   4
HETATM    4  C   UNL     1      46.306 -27.940  -3.388  1.00  0.00     0.124 C 
BRANCH   4   5
HETATM    5  C   UNL     1      44.925 -28.401  -3.941  1.00  0.00     0.011 C 
HETATM    6  C   UNL     1      44.289 -27.360  -4.613  1.00  0.00     0.007 C 
HETATM    7  C   UNL     1      43.174 -26.799  -3.604  1.00  0.00     0.000 C 
HETATM    8  C   UNL     1      42.915 -27.979  -2.543  1.00  0.00     0.000 C 
HETATM    9  C   UNL     1      44.010 -28.829  -2.617  1.00  0.00     0.007 C 
ENDBRANCH   4   5
BRANCH   4  10
HETATM   10  N   UNL     1      47.285 -27.660  -4.470  1.00  0.00    -0.297 N 
HETATM   11  C   UNL     1      47.697 -26.447  -4.789  1.00  0.00     0.125 A 
HETATM   12  C   UNL     1      48.621 -26.586  -5.833  1.00  0.00     0.026 A 
HETATM   13  C   UNL     1      48.728 -27.979  -6.059  1.00  0.00     0.122 A 
HETATM   14  N   UNL     1      47.912 -28.599  -5.208  1.00  0.00    -0.309 N 
ATOM     15  HN  UNL     1      47.784 -29.608  -5.129  1.00  0.00     0.186 HD
BRANCH  12  16
HETATM   16  C   UNL     1      49.452 -25.481  -6.495  1.00  0.00     0.076 A 
HETATM   17  C   UNL     1      49.088 -24.086  -6.469  1.00  0.00     0.038 A 
HETATM   18  C   UNL     1      47.982 -23.305  -6.014  1.00  0.00     0.034 A 
HETATM   19  C   UNL     1      49.961 -23.187  -7.026  1.00  0.00     0.133 A 
HETATM   20  C   UNL     1      48.246 -21.965  -6.337  1.00  0.00     0.090 A 
HETATM   21  N   UNL     1      49.419 -21.911  -6.951  1.00  0.00    -0.351 N 
ATOM     22  HN  UNL     1      49.856 -21.063  -7.312  1.00  0.00     0.166 HD
HETATM   23  N   UNL     1      51.144 -23.645  -7.577  1.00  0.00    -0.175 N 
HETATM   24  C   UNL     1      51.434 -24.927  -7.547  1.00  0.00     0.684 A 
ATOM     25  HN  UNL     1      51.794 -22.986  -8.006  1.00  0.00     0.186 HD
HETATM   26  N   UNL     1      50.639 -25.838  -7.001  1.00  0.00    -0.190 N 
ATOM     27  HN  UNL     1      50.933 -26.814  -6.967  1.00  0.00     0.184 HD
BRANCH  24  28
HETATM   28  N   UNL     1      52.711 -25.312  -8.124  1.00  0.00    -0.192 N 
ATOM     29  HN  UNL     1      52.955 -26.300  -8.046  1.00  0.00     0.184 HD
BRANCH  28  30
HETATM   30  C   UNL     1      53.689 -24.468  -8.800  1.00  0.00     0.049 A 
HETATM   31  C   UNL     1      54.234 -25.027  -9.983  1.00  0.00     0.030 A 
HETATM   32  C   UNL     1      55.153 -24.312 -10.712  1.00  0.00     0.010 A 
HETATM   33  C   UNL     1      55.573 -23.013 -10.290  1.00  0.00    -0.054 A 
HETATM   34  C   UNL     1      55.039 -22.452  -9.118  1.00  0.00     0.010 A 
HETATM   35  C   UNL     1      54.090 -23.190  -8.366  1.00  0.00     0.030 A 
BRANCH  33  36
HETATM   36  C   UNL     1      56.615 -22.317 -11.199  1.00  0.00     0.022 C 
HETATM   37  C   UNL     1      55.850 -21.065 -11.448  1.00  0.00     0.037 C 
HETATM   38  C   UNL     1      56.445 -20.159 -12.529  1.00  0.00     0.233 C 
HETATM   39  N   UNL     1      57.672 -20.713 -13.131  1.00  0.00    -0.075 N 
HETATM   40  C   UNL     1      57.451 -22.110 -13.594  1.00  0.00     0.233 C 
ATOM     41  HN2 UNL     1      58.466 -20.648 -12.494  1.00  0.00     0.277 HD
ATOM     42  HN1 UNL     1      58.026 -20.118 -13.881  1.00  0.00     0.277 HD
HETATM   43  C   UNL     1      57.143 -23.023 -12.416  1.00  0.00     0.037 C 
ENDBRANCH  33  36
ENDBRANCH  28  30
ENDBRANCH  24  28
ENDBRANCH  12  16
ENDBRANCH   4  10
ENDBRANCH   2   4
TORSDOF 7
ENDMDL
MODEL 2
REMARK VINA RESULT:   -11.425      1.198      2.758
REMARK INTER + INTRA:         -16.576
REMARK INTER:                 -15.942
REMARK INTRA:                  -0.633
REMARK UNBOUND:                -0.475
REMARK  7 active torsions:
REMARK  status: ('A' for Active; 'I' for Inactive)
REMARK    1  A    between atoms: C_2  and  C_18 
REMARK    2  A    between atoms: C_3  and  N_35 
REMARK    3  A    between atoms: C_6  and  C_20 
REMARK    4  A    between atoms: C_10  and  C_11 
REMARK    5  A    between atoms: C_11  and  C_12 
REMARK    6  A    between atoms: C_11  and  N_30 
REMARK    7  A    between atoms: C_19  and  N_35 
ROOT
HETATM    1  C   UNL     1      44.488 -27.461  -4.166  1.00  0.00     0.061 C 
HETATM    2  C   UNL     1      45.548 -28.057  -3.227  1.00  0.00     0.151 C 
HETATM    3  N   UNL     1      43.806 -27.003  -4.960  1.00  0.00    -0.197 NA
ENDROOT
BRANCH   2   4
HETATM    4  C   UNL     1      46.834 -28.347  -4.042  1.00  0.00     0.124 C 
BRANCH   4   5
HETATM    5  C   UNL     1      47.803 -29.278  -3.256  1.00  0.00     0.011 C 
HETATM    6  C   UNL     1      48.593 -28.541  -2.376  1.00  0.00     0.007 C 
HETATM    7  C   UNL     1      50.031 -28.412  -3.077  1.00  0.00     0.000 C 
HETATM    8  C   UNL     1      50.095 -29.598  -4.160  1.00  0.00     0.000 C 
HETATM    9  C   UNL     1      48.786 -29.997  -4.393  1.00  0.00     0.007 C 
ENDBRANCH   4   5
BRANCH   4  10
HETATM   10  N   UNL     1      47.428 -27.012  -4.316  1.00  0.00    -0.297 N 
HETATM   11  C   UNL     1      48.094 -26.719  -5.418  1.00  0.00     0.125 A 
HETATM   12  C   UNL     1      48.480 -25.376  -5.322  1.00  0.00     0.026 A 
HETATM   13  C   UNL     1      47.950 -24.918  -4.092  1.00  0.00     0.122 A 
HETATM   14  N   UNL     1      47.310 -25.933  -3.515  1.00  0.00    -0.309 N 
ATOM     15  HN  UNL     1      46.817 -25.901  -2.622  1.00  0.00     0.186 HD
BRANCH  12  16
HETATM   16  C   UNL     1      49.197 -24.534  -6.383  1.00  0.00     0.076 A 
HETATM   17  C   UNL     1      48.830 -23.177  -6.706  1.00  0.00     0.038 A 
HETATM   18  C   UNL     1      47.794 -22.263  -6.342  1.00  0.00     0.034 A 
HETATM   19  C   UNL     1      49.604 -22.503  -7.614  1.00  0.00     0.133 A 
HETATM   20  C   UNL     1      47.998 -21.080  -7.069  1.00  0.00     0.090 A 
HETATM   21  N   UNL     1      49.069 -21.242  -7.832  1.00  0.00    -0.351 N 
ATOM     22  HN  UNL     1      49.442 -20.547  -8.478  1.00  0.00     0.166 HD
HETATM   23  N   UNL     1      50.699 -23.139  -8.172  1.00  0.00    -0.175 N 
HETATM   24  C   UNL     1      51.002 -24.369  -7.819  1.00  0.00     0.684 A 
ATOM     25  HN  UNL     1      51.274 -22.652  -8.860  1.00  0.00     0.186 HD
HETATM   26  N   UNL     1      50.301 -25.060  -6.928  1.00  0.00    -0.190 N 
ATOM     27  HN  UNL     1      50.605 -25.995  -6.658  1.00  0.00     0.184 HD
BRANCH  24  28
HETATM   28  N   UNL     1      52.185 -24.945  -8.435  1.00  0.00    -0.192 N 
ATOM     29  HN  UNL     1      52.224 -25.964  -8.456  1.00  0.00     0.184 HD
BRANCH  28  30
HETATM   30  C   UNL     1      53.322 -24.252  -9.028  1.00  0.00     0.049 A 
HETATM   31  C   UNL     1      53.809 -24.834 -10.225  1.00  0.00     0.030 A 
HETATM   32  C   UNL     1      54.869 -24.255 -10.880  1.00  0.00     0.010 A 
HETATM   33  C   UNL     1      55.493 -23.077 -10.368  1.00  0.00    -0.054 A 
HETATM   34  C   UNL     1      55.018 -22.494  -9.181  1.00  0.00     0.010 A 
HETATM   35  C   UNL     1      53.924 -23.091  -8.505  1.00  0.00     0.030 A 
BRANCH  33  36
HETATM   36  C   UNL     1      56.678 -22.529 -11.200  1.00  0.00     0.022 C 
HETATM   37  C   UNL     1      56.017 -21.286 -11.684  1.00  0.00     0.037 C 
HETATM   38  C   UNL     1      56.792 -20.533 -12.768  1.00  0.00     0.233 C 
HETATM   39  N   UNL     1      58.056 -21.197 -13.136  1.00  0.00    -0.075 N 
HETATM   40  C   UNL     1      57.825 -22.630 -13.470  1.00  0.00     0.233 C 
ATOM     41  HN2 UNL     1      58.764 -21.089 -12.410  1.00  0.00     0.277 HD
ATOM     42  HN1 UNL     1      58.534 -20.707 -13.892  1.00  0.00     0.277 HD
HETATM   43  C   UNL     1      57.321 -23.389 -12.250  1.00  0.00     0.037 C 
ENDBRANCH  33  36
ENDBRANCH  28  30
ENDBRANCH  24  28
ENDBRANCH  12  16
ENDBRANCH   4  10
ENDBRANCH   2   4
TORSDOF 7
ENDMDL
MODEL 3
REMARK VINA RESULT:   -10.997      2.206      3.499
REMARK INTER + INTRA:         -15.971
REMARK INTER:                 -15.422
REMARK INTRA:                  -0.550
REMARK UNBOUND:                -0.475
REMARK  7 active torsions:
REMARK  status: ('A' for Active; 'I' for Inactive)
REMARK    1  A    between atoms: C_2  and  C_18 
REMARK    2  A    between atoms: C_3  and  N_35 
REMARK    3  A    between atoms: C_6  and  C_20 
REMARK    4  A    between atoms: C_10  and  C_11 
REMARK    5  A    between atoms: C_11  and  C_12 
REMARK    6  A    between atoms: C_11  and  N_30 
REMARK    7  A    between atoms: C_19  and  N_35 
ROOT
HETATM    1  C   UNL     1      51.280 -28.170  -3.030  1.00  0.00     0.061 C 
HETATM    2  C   UNL     1      50.973 -27.935  -4.517  1.00  0.00     0.151 C 
HETATM    3  N   UNL     1      51.429 -28.227  -1.899  1.00  0.00    -0.197 NA
ENDROOT
BRANCH   2   4
HETATM    4  C   UNL     1      49.847 -26.876  -4.636  1.00  0.00     0.124 C 
BRANCH   4   5
HETATM    5  C   UNL     1      48.472 -27.544  -4.931  1.00  0.00     0.011 C 
HETATM    6  C   UNL     1      47.609 -27.398  -3.847  1.00  0.00     0.007 C 
HETATM    7  C   UNL     1      47.608 -28.814  -3.090  1.00  0.00     0.000 C 
HETATM    8  C   UNL     1      48.131 -29.884  -4.170  1.00  0.00     0.000 C 
HETATM    9  C   UNL     1      48.779 -29.165  -5.164  1.00  0.00     0.007 C 
ENDBRANCH   4   5
BRANCH   4  10
HETATM   10  N   UNL     1      50.283 -25.969  -5.729  1.00  0.00    -0.297 N 
HETATM   11  C   UNL     1      49.895 -24.711  -5.835  1.00  0.00     0.125 A 
HETATM   12  C   UNL     1      50.522 -24.181  -6.970  1.00  0.00     0.026 A 
HETATM   13  C   UNL     1      51.325 -25.228  -7.482  1.00  0.00     0.122 A 
HETATM   14  N   UNL     1      51.163 -26.292  -6.699  1.00  0.00    -0.309 N 
ATOM     15  HN  UNL     1      51.624 -27.195  -6.812  1.00  0.00     0.186 HD
BRANCH  12  16
HETATM   16  C   UNL     1      50.468 -22.734  -7.474  1.00  0.00     0.076 A 
HETATM   17  C   UNL     1      49.346 -21.854  -7.255  1.00  0.00     0.038 A 
HETATM   18  C   UNL     1      48.036 -21.956  -6.695  1.00  0.00     0.034 A 
HETATM   19  C   UNL     1      49.458 -20.557  -7.682  1.00  0.00     0.133 A 
HETATM   20  C   UNL     1      47.418 -20.703  -6.830  1.00  0.00     0.090 A 
HETATM   21  N   UNL     1      48.270 -19.885  -7.431  1.00  0.00    -0.351 N 
ATOM     22  HN  UNL     1      48.081 -18.912  -7.672  1.00  0.00     0.166 HD
HETATM   23  N   UNL     1      50.629 -20.144  -8.291  1.00  0.00    -0.175 N 
HETATM   24  C   UNL     1      51.630 -20.984  -8.440  1.00  0.00     0.684 A 
ATOM     25  HN  UNL     1      50.717 -19.184  -8.626  1.00  0.00     0.186 HD
HETATM   26  N   UNL     1      51.586 -22.244  -8.025  1.00  0.00    -0.190 N 
ATOM     27  HN  UNL     1      52.406 -22.840  -8.126  1.00  0.00     0.184 HD
BRANCH  24  28
HETATM   28  N   UNL     1      52.829 -20.454  -9.065  1.00  0.00    -0.192 N 
ATOM     29  HN  UNL     1      52.927 -19.438  -9.049  1.00  0.00     0.184 HD
BRANCH  28  30
HETATM   30  C   UNL     1      53.911 -21.186  -9.712  1.00  0.00     0.049 A 
HETATM   31  C   UNL     1      54.008 -22.550  -9.336  1.00  0.00     0.030 A 
HETATM   32  C   UNL     1      54.981 -23.342  -9.896  1.00  0.00     0.010 A 
HETATM   33  C   UNL     1      55.901 -22.809 -10.850  1.00  0.00    -0.054 A 
HETATM   34  C   UNL     1      55.813 -21.459 -11.228  1.00  0.00     0.010 A 
HETATM   35  C   UNL     1      54.808 -20.641 -10.650  1.00  0.00     0.030 A 
BRANCH  33  36
HETATM   36  C   UNL     1      56.948 -23.806 -11.402  1.00  0.00     0.022 C 
HETATM   37  C   UNL     1      57.241 -23.096 -12.677  1.00  0.00     0.037 C 
HETATM   38  C   UNL     1      58.091 -23.893 -13.669  1.00  0.00     0.233 C 
HETATM   39  N   UNL     1      58.455 -25.232 -13.168  1.00  0.00    -0.075 N 
HETATM   40  C   UNL     1      57.247 -25.970 -12.707  1.00  0.00     0.233 C 
ATOM     41  HN2 UNL     1      59.166 -25.182 -12.440  1.00  0.00     0.277 HD
ATOM     42  HN1 UNL     1      58.980 -25.764 -13.862  1.00  0.00     0.277 HD
HETATM   43  C   UNL     1      56.609 -25.265 -11.519  1.00  0.00     0.037 C 
ENDBRANCH  33  36
ENDBRANCH  28  30
ENDBRANCH  24  28
ENDBRANCH  12  16
ENDBRANCH   4  10
ENDBRANCH   2   4
TORSDOF 7
ENDMDL
MODEL 4
REMARK VINA RESULT:   -10.870      4.921      9.034
REMARK INTER + INTRA:         -15.793
REMARK INTER:                 -15.273
REMARK INTRA:                  -0.520
REMARK UNBOUND:                -0.475
REMARK  7 active torsions:
REMARK  status: ('A' for Active; 'I' for Inactive)
REMARK    1  A    between atoms: C_2  and  C_18 
REMARK    2  A    between atoms: C_3  and  N_35 
REMARK    3  A    between atoms: C_6  and  C_20 
REMARK    4  A    between atoms: C_10  and  C_11 
REMARK    5  A    between atoms: C_11  and  C_12 
REMARK    6  A    between atoms: C_11  and  N_30 
REMARK    7  A    between atoms: C_19  and  N_35 
ROOT
HETATM    1  C   UNL     1      51.452 -24.877 -10.240  1.00  0.00     0.061 C 
HETATM    2  C   UNL     1      51.341 -24.590  -8.735  1.00  0.00     0.151 C 
HETATM    3  N   UNL     1      51.677 -25.081 -11.342  1.00  0.00    -0.197 NA
ENDROOT
BRANCH   2   4
HETATM    4  C   UNL     1      52.745 -24.726  -8.093  1.00  0.00     0.124 C 
BRANCH   4   5
HETATM    5  C   UNL     1      52.686 -24.501  -6.554  1.00  0.00     0.011 C 
HETATM    6  C   UNL     1      53.952 -24.619  -5.987  1.00  0.00     0.007 C 
HETATM    7  C   UNL     1      53.998 -26.071  -5.304  1.00  0.00     0.000 C 
HETATM    8  C   UNL     1      52.463 -26.500  -5.096  1.00  0.00     0.000 C 
HETATM    9  C   UNL     1      51.706 -25.702  -5.942  1.00  0.00     0.007 C 
ENDBRANCH   4   5
BRANCH   4  10
HETATM   10  N   UNL     1      53.586 -23.713  -8.781  1.00  0.00    -0.297 N 
HETATM   11  C   UNL     1      54.519 -24.015  -9.666  1.00  0.00     0.125 A 
HETATM   12  C   UNL     1      55.078 -22.807 -10.103  1.00  0.00     0.026 A 
HETATM   13  C   UNL     1      54.365 -21.791  -9.423  1.00  0.00     0.122 A 
HETATM   14  N   UNL     1      53.462 -22.377  -8.639  1.00  0.00    -0.309 N 
ATOM     15  HN  UNL     1      52.792 -21.899  -8.035  1.00  0.00     0.186 HD
BRANCH  12  16
HETATM   16  C   UNL     1      56.137 -22.612 -11.194  1.00  0.00     0.076 A 
HETATM   17  C   UNL     1      56.821 -23.702 -11.846  1.00  0.00     0.038 A 
HETATM   18  C   UNL     1      56.883 -25.123 -11.711  1.00  0.00     0.034 A 
HETATM   19  C   UNL     1      57.685 -23.397 -12.865  1.00  0.00     0.133 A 
HETATM   20  C   UNL     1      57.801 -25.599 -12.660  1.00  0.00     0.090 A 
HETATM   21  N   UNL     1      58.280 -24.562 -13.329  1.00  0.00    -0.351 N 
ATOM     22  HN  UNL     1      58.979 -24.611 -14.071  1.00  0.00     0.166 HD
HETATM   23  N   UNL     1      57.859 -22.075 -13.232  1.00  0.00    -0.175 N 
HETATM   24  C   UNL     1      57.187 -21.124 -12.619  1.00  0.00     0.684 A 
ATOM     25  HN  UNL     1      58.510 -21.835 -13.980  1.00  0.00     0.186 HD
HETATM   26  N   UNL     1      56.321 -21.363 -11.642  1.00  0.00    -0.190 N 
ATOM     27  HN  UNL     1      55.794 -20.593 -11.231  1.00  0.00     0.184 HD
BRANCH  24  28
HETATM   28  N   UNL     1      57.412 -19.769 -13.091  1.00  0.00    -0.192 N 
ATOM     29  HN  UNL     1      58.060 -19.672 -13.873  1.00  0.00     0.184 HD
BRANCH  28  30
HETATM   30  C   UNL     1      56.833 -18.529 -12.589  1.00  0.00     0.049 A 
HETATM   31  C   UNL     1      57.303 -17.356 -13.230  1.00  0.00     0.030 A 
HETATM   32  C   UNL     1      56.812 -16.130 -12.849  1.00  0.00     0.010 A 
HETATM   33  C   UNL     1      55.837 -16.020 -11.810  1.00  0.00    -0.054 A 
HETATM   34  C   UNL     1      55.367 -17.178 -11.169  1.00  0.00     0.010 A 
HETATM   35  C   UNL     1      55.873 -18.444 -11.562  1.00  0.00     0.030 A 
BRANCH  33  36
HETATM   36  C   UNL     1      55.370 -14.583 -11.477  1.00  0.00     0.022 C 
HETATM   37  C   UNL     1      54.089 -14.614 -12.234  1.00  0.00     0.037 C 
HETATM   38  C   UNL     1      53.392 -13.257 -12.363  1.00  0.00     0.233 C 
HETATM   39  N   UNL     1      54.138 -12.164 -11.712  1.00  0.00    -0.075 N 
HETATM   40  C   UNL     1      55.554 -12.142 -12.173  1.00  0.00     0.233 C 
ATOM     41  HN2 UNL     1      54.074 -12.217 -10.696  1.00  0.00     0.277 HD
ATOM     42  HN1 UNL     1      53.682 -11.262 -11.850  1.00  0.00     0.277 HD
HETATM   43  C   UNL     1      56.274 -13.415 -11.753  1.00  0.00     0.037 C 
ENDBRANCH  33  36
ENDBRANCH  28  30
ENDBRANCH  24  28
ENDBRANCH  12  16
ENDBRANCH   4  10
ENDBRANCH   2   4
TORSDOF 7
ENDMDL
MODEL 5
REMARK VINA RESULT:   -10.806      1.877      2.942
REMARK INTER + INTRA:         -15.703
REMARK INTER:                 -14.569
REMARK INTRA:                  -1.134
REMARK UNBOUND:                -0.475
REMARK  7 active torsions:
REMARK  status: ('A' for Active; 'I' for Inactive)
REMARK    1  A    between atoms: C_2  and  C_18 
REMARK    2  A    between atoms: C_3  and  N_35 
REMARK    3  A    between atoms: C_6  and  C_20 
REMARK    4  A    between atoms: C_10  and  C_11 
REMARK    5  A    between atoms: C_11  and  C_12 
REMARK    6  A    between atoms: C_11  and  N_30 
REMARK    7  A    between atoms: C_19  and  N_35 
ROOT
HETATM    1  C   UNL     1      44.834 -24.435  -4.045  1.00  0.00     0.061 C 
HETATM    2  C   UNL     1      45.786 -25.581  -3.670  1.00  0.00     0.151 C 
HETATM    3  N   UNL     1      44.108 -23.651  -4.450  1.00  0.00    -0.197 NA
ENDROOT
BRANCH   2   4
HETATM    4  C   UNL     1      45.625 -26.726  -4.702  1.00  0.00     0.124 C 
BRANCH   4   5
HETATM    5  C   UNL     1      44.827 -27.920  -4.101  1.00  0.00     0.011 C 
HETATM    6  C   UNL     1      43.474 -27.819  -4.413  1.00  0.00     0.007 C 
HETATM    7  C   UNL     1      42.754 -27.275  -3.085  1.00  0.00     0.000 C 
HETATM    8  C   UNL     1      43.763 -27.605  -1.878  1.00  0.00     0.000 C 
HETATM    9  C   UNL     1      45.010 -27.821  -2.448  1.00  0.00     0.007 C 
ENDBRANCH   4   5
BRANCH   4  10
HETATM   10  N   UNL     1      47.011 -27.104  -5.081  1.00  0.00    -0.297 N 
HETATM   11  C   UNL     1      47.935 -26.233  -5.442  1.00  0.00     0.125 A 
HETATM   12  C   UNL     1      49.105 -26.957  -5.704  1.00  0.00     0.026 A 
HETATM   13  C   UNL     1      48.783 -28.308  -5.430  1.00  0.00     0.122 A 
HETATM   14  N   UNL     1      47.509 -28.357  -5.045  1.00  0.00    -0.309 N 
ATOM     15  HN  UNL     1      46.998 -29.197  -4.770  1.00  0.00     0.186 HD
BRANCH  12  16
HETATM   16  C   UNL     1      50.484 -26.398  -6.070  1.00  0.00     0.076 A 
HETATM   17  C   UNL     1      51.691 -26.720  -5.348  1.00  0.00     0.038 A 
HETATM   18  C   UNL     1      52.038 -27.448  -4.169  1.00  0.00     0.034 A 
HETATM   19  C   UNL     1      52.875 -26.222  -5.828  1.00  0.00     0.133 A 
HETATM   20  C   UNL     1      53.426 -27.336  -3.994  1.00  0.00     0.090 A 
HETATM   21  N   UNL     1      53.909 -26.593  -4.979  1.00  0.00    -0.351 N 
ATOM     22  HN  UNL     1      54.889 -26.335  -5.096  1.00  0.00     0.166 HD
HETATM   23  N   UNL     1      52.869 -25.449  -6.975  1.00  0.00    -0.175 N 
HETATM   24  C   UNL     1      51.740 -25.211  -7.606  1.00  0.00     0.684 A 
ATOM     25  HN  UNL     1      53.742 -25.062  -7.332  1.00  0.00     0.186 HD
HETATM   26  N   UNL     1      50.569 -25.685  -7.200  1.00  0.00    -0.190 N 
ATOM     27  HN  UNL     1      49.730 -25.507  -7.752  1.00  0.00     0.184 HD
BRANCH  24  28
HETATM   28  N   UNL     1      51.834 -24.413  -8.816  1.00  0.00    -0.192 N 
ATOM     29  HN  UNL     1      50.970 -24.309  -9.349  1.00  0.00     0.184 HD
BRANCH  28  30
HETATM   30  C   UNL     1      53.005 -23.742  -9.368  1.00  0.00     0.049 A 
HETATM   31  C   UNL     1      53.811 -24.554 -10.204  1.00  0.00     0.030 A 
HETATM   32  C   UNL     1      54.932 -24.021 -10.793  1.00  0.00     0.010 A 
HETATM   33  C   UNL     1      55.301 -22.659 -10.569  1.00  0.00    -0.054 A 
HETATM   34  C   UNL     1      54.508 -21.848  -9.741  1.00  0.00     0.010 A 
HETATM   35  C   UNL     1      53.351 -22.397  -9.133  1.00  0.00     0.030 A 
BRANCH  33  36
HETATM   36  C   UNL     1      56.587 -22.185 -11.289  1.00  0.00     0.022 C 
HETATM   37  C   UNL     1      56.070 -20.874 -11.767  1.00  0.00     0.037 C 
HETATM   38  C   UNL     1      56.986 -20.152 -12.759  1.00  0.00     0.233 C 
HETATM   39  N   UNL     1      58.215 -20.909 -13.062  1.00  0.00    -0.075 N 
HETATM   40  C   UNL     1      57.891 -22.303 -13.472  1.00  0.00     0.233 C 
ATOM     41  HN2 UNL     1      58.872 -20.888 -12.283  1.00  0.00     0.277 HD
ATOM     42  HN1 UNL     1      58.787 -20.434 -13.760  1.00  0.00     0.277 HD
HETATM   43  C   UNL     1      57.235 -23.059 -12.326  1.00  0.00     0.037 C 
ENDBRANCH  33  36
ENDBRANCH  28  30
ENDBRANCH  24  28
ENDBRANCH  12  16
ENDBRANCH   4  10
ENDBRANCH   2   4
TORSDOF 7
ENDMDL
MODEL 6
REMARK VINA RESULT:   -10.684      1.473      2.151
REMARK INTER + INTRA:         -15.531
REMARK INTER:                 -14.699
REMARK INTRA:                  -0.832
REMARK UNBOUND:                -0.475
REMARK  7 active torsions:
REMARK  status: ('A' for Active; 'I' for Inactive)
REMARK    1  A    between atoms: C_2  and  C_18 
REMARK    2  A    between atoms: C_3  and  N_35 
REMARK    3  A    between atoms: C_6  and  C_20 
REMARK    4  A    between atoms: C_10  and  C_11 
REMARK    5  A    between atoms: C_11  and  C_12 
REMARK    6  A    between atoms: C_11  and  N_30 
REMARK    7  A    between atoms: C_19  and  N_35 
ROOT
HETATM    1  C   UNL     1      50.037 -30.168  -4.215  1.00  0.00     0.061 C 
HETATM    2  C   UNL     1      48.587 -29.903  -3.782  1.00  0.00     0.151 C 
HETATM    3  N   UNL     1      51.139 -30.226  -4.512  1.00  0.00    -0.197 NA
ENDROOT
BRANCH   2   4
HETATM    4  C   UNL     1      48.510 -28.505  -3.116  1.00  0.00     0.124 C 
BRANCH   4   5
HETATM    5  C   UNL     1      47.236 -28.371  -2.232  1.00  0.00     0.011 C 
HETATM    6  C   UNL     1      46.449 -29.516  -2.320  1.00  0.00     0.007 C 
HETATM    7  C   UNL     1      45.236 -29.143  -3.305  1.00  0.00     0.000 C 
HETATM    8  C   UNL     1      45.158 -27.537  -3.307  1.00  0.00     0.000 C 
HETATM    9  C   UNL     1      46.380 -27.076  -2.837  1.00  0.00     0.007 C 
ENDBRANCH   4   5
BRANCH   4  10
HETATM   10  N   UNL     1      48.521 -27.538  -4.244  1.00  0.00    -0.297 N 
HETATM   11  C   UNL     1      49.313 -26.483  -4.296  1.00  0.00     0.125 A 
HETATM   12  C   UNL     1      49.050 -25.829  -5.506  1.00  0.00     0.026 A 
HETATM   13  C   UNL     1      48.069 -26.616  -6.156  1.00  0.00     0.122 A 
HETATM   14  N   UNL     1      47.780 -27.649  -5.367  1.00  0.00    -0.309 N 
ATOM     15  HN  UNL     1      47.115 -28.394  -5.574  1.00  0.00     0.186 HD
BRANCH  12  16
HETATM   16  C   UNL     1      49.770 -24.603  -6.079  1.00  0.00     0.076 A 
HETATM   17  C   UNL     1      49.121 -23.337  -6.320  1.00  0.00     0.038 A 
HETATM   18  C   UNL     1      47.791 -22.818  -6.252  1.00  0.00     0.034 A 
HETATM   19  C   UNL     1      49.895 -22.293  -6.755  1.00  0.00     0.133 A 
HETATM   20  C   UNL     1      47.837 -21.478  -6.667  1.00  0.00     0.090 A 
HETATM   21  N   UNL     1      49.091 -21.184  -6.976  1.00  0.00    -0.351 N 
ATOM     22  HN  UNL     1      49.416 -20.281  -7.324  1.00  0.00     0.166 HD
HETATM   23  N   UNL     1      51.252 -22.488  -6.936  1.00  0.00    -0.175 N 
HETATM   24  C   UNL     1      51.794 -23.658  -6.675  1.00  0.00     0.684 A 
ATOM     25  HN  UNL     1      51.836 -21.722  -7.273  1.00  0.00     0.186 HD
HETATM   26  N   UNL     1      51.097 -24.696  -6.230  1.00  0.00    -0.190 N 
ATOM     27  HN  UNL     1      51.574 -25.567  -6.002  1.00  0.00     0.184 HD
BRANCH  24  28
HETATM   28  N   UNL     1      53.230 -23.761  -6.868  1.00  0.00    -0.192 N 
ATOM     29  HN  UNL     1      53.777 -23.972  -6.033  1.00  0.00     0.184 HD
BRANCH  28  30
HETATM   30  C   UNL     1      53.990 -23.601  -8.101  1.00  0.00     0.049 A 
HETATM   31  C   UNL     1      54.074 -24.769  -8.899  1.00  0.00     0.030 A 
HETATM   32  C   UNL     1      54.753 -24.730 -10.093  1.00  0.00     0.010 A 
HETATM   33  C   UNL     1      55.381 -23.527 -10.540  1.00  0.00    -0.054 A 
HETATM   34  C   UNL     1      55.303 -22.365  -9.756  1.00  0.00     0.010 A 
HETATM   35  C   UNL     1      54.603 -22.405  -8.523  1.00  0.00     0.030 A 
BRANCH  33  36
HETATM   36  C   UNL     1      56.114 -23.619 -11.901  1.00  0.00     0.022 C 
HETATM   37  C   UNL     1      56.814 -24.910 -11.658  1.00  0.00     0.037 C 
HETATM   38  C   UNL     1      57.869 -25.269 -12.707  1.00  0.00     0.233 C 
HETATM   39  N   UNL     1      57.998 -24.250 -13.765  1.00  0.00    -0.075 N 
HETATM   40  C   UNL     1      58.195 -22.897 -13.175  1.00  0.00     0.233 C 
ATOM     41  HN2 UNL     1      57.205 -24.270 -14.406  1.00  0.00     0.277 HD
ATOM     42  HN1 UNL     1      58.738 -24.484 -14.426  1.00  0.00     0.277 HD
HETATM   43  C   UNL     1      56.971 -22.479 -12.372  1.00  0.00     0.037 C 
ENDBRANCH  33  36
ENDBRANCH  28  30
ENDBRANCH  24  28
ENDBRANCH  12  16
ENDBRANCH   4  10
ENDBRANCH   2   4
TORSDOF 7
ENDMDL
MODEL 7
REMARK VINA RESULT:   -10.681      2.646      4.410
REMARK INTER + INTRA:         -15.526
REMARK INTER:                 -14.642
REMARK INTRA:                  -0.884
REMARK UNBOUND:                -0.475
REMARK  7 active torsions:
REMARK  status: ('A' for Active; 'I' for Inactive)
REMARK    1  A    between atoms: C_2  and  C_18 
REMARK    2  A    between atoms: C_3  and  N_35 
REMARK    3  A    between atoms: C_6  and  C_20 
REMARK    4  A    between atoms: C_10  and  C_11 
REMARK    5  A    between atoms: C_11  and  C_12 
REMARK    6  A    between atoms: C_11  and  N_30 
REMARK    7  A    between atoms: C_19  and  N_35 
ROOT
HETATM    1  C   UNL     1      51.984 -26.050  -5.576  1.00  0.00     0.061 C 
HETATM    2  C   UNL     1      50.645 -26.056  -6.329  1.00  0.00     0.151 C 
HETATM    3  N   UNL     1      52.913 -25.967  -4.915  1.00  0.00    -0.197 NA
ENDROOT
BRANCH   2   4
HETATM    4  C   UNL     1      49.534 -25.534  -5.382  1.00  0.00     0.124 C 
BRANCH   4   5
HETATM    5  C   UNL     1      48.320 -26.506  -5.346  1.00  0.00     0.011 C 
HETATM    6  C   UNL     1      47.906 -26.733  -4.036  1.00  0.00     0.007 C 
HETATM    7  C   UNL     1      48.479 -28.179  -3.636  1.00  0.00     0.000 C 
HETATM    8  C   UNL     1      48.779 -28.927  -5.027  1.00  0.00     0.000 C 
HETATM    9  C   UNL     1      48.850 -27.943  -6.003  1.00  0.00     0.007 C 
ENDBRANCH   4   5
BRANCH   4  10
HETATM   10  N   UNL     1      49.172 -24.194  -5.912  1.00  0.00    -0.297 N 
HETATM   11  C   UNL     1      49.976 -23.458  -6.657  1.00  0.00     0.125 A 
HETATM   12  C   UNL     1      49.285 -22.282  -6.974  1.00  0.00     0.026 A 
HETATM   13  C   UNL     1      48.008 -22.422  -6.379  1.00  0.00     0.122 A 
HETATM   14  N   UNL     1      47.972 -23.597  -5.752  1.00  0.00    -0.309 N 
ATOM     15  HN  UNL     1      47.176 -23.979  -5.241  1.00  0.00     0.186 HD
BRANCH  12  16
HETATM   16  C   UNL     1      49.750 -21.146  -7.891  1.00  0.00     0.076 A 
HETATM   17  C   UNL     1      48.893 -20.072  -8.328  1.00  0.00     0.038 A 
HETATM   18  C   UNL     1      47.509 -19.731  -8.215  1.00  0.00     0.034 A 
HETATM   19  C   UNL     1      49.452 -19.070  -9.078  1.00  0.00     0.133 A 
HETATM   20  C   UNL     1      47.308 -18.536  -8.924  1.00  0.00     0.090 A 
HETATM   21  N   UNL     1      48.468 -18.162  -9.442  1.00  0.00    -0.351 N 
ATOM     22  HN  UNL     1      48.615 -17.335 -10.021  1.00  0.00     0.166 HD
HETATM   23  N   UNL     1      50.802 -19.122  -9.376  1.00  0.00    -0.175 N 
HETATM   24  C   UNL     1      51.541 -20.114  -8.927  1.00  0.00     0.684 A 
ATOM     25  HN  UNL     1      51.226 -18.390  -9.945  1.00  0.00     0.186 HD
HETATM   26  N   UNL     1      51.057 -21.097  -8.179  1.00  0.00    -0.190 N 
ATOM     27  HN  UNL     1      51.684 -21.818  -7.821  1.00  0.00     0.184 HD
BRANCH  24  28
HETATM   28  N   UNL     1      52.953 -20.070  -9.267  1.00  0.00    -0.192 N 
ATOM     29  HN  UNL     1      53.405 -19.160  -9.174  1.00  0.00     0.184 HD
BRANCH  28  30
HETATM   30  C   UNL     1      53.807 -21.160  -9.723  1.00  0.00     0.049 A 
HETATM   31  C   UNL     1      54.956 -20.747 -10.443  1.00  0.00     0.030 A 
HETATM   32  C   UNL     1      55.842 -21.689 -10.907  1.00  0.00     0.010 A 
HETATM   33  C   UNL     1      55.618 -23.082 -10.680  1.00  0.00    -0.054 A 
HETATM   34  C   UNL     1      54.481 -23.499  -9.968  1.00  0.00     0.010 A 
HETATM   35  C   UNL     1      53.566 -22.527  -9.489  1.00  0.00     0.030 A 
BRANCH  33  36
HETATM   36  C   UNL     1      56.690 -24.037 -11.257  1.00  0.00     0.022 C 
HETATM   37  C   UNL     1      57.038 -23.234 -12.461  1.00  0.00     0.037 C 
HETATM   38  C   UNL     1      57.934 -23.956 -13.471  1.00  0.00     0.233 C 
HETATM   39  N   UNL     1      58.277 -25.329 -13.056  1.00  0.00    -0.075 N 
HETATM   40  C   UNL     1      57.051 -26.098 -12.706  1.00  0.00     0.233 C 
ATOM     41  HN2 UNL     1      58.955 -25.334 -12.295  1.00  0.00     0.277 HD
ATOM     42  HN1 UNL     1      58.834 -25.809 -13.763  1.00  0.00     0.277 HD
HETATM   43  C   UNL     1      56.360 -25.483 -11.498  1.00  0.00     0.037 C 
ENDBRANCH  33  36
ENDBRANCH  28  30
ENDBRANCH  24  28
ENDBRANCH  12  16
ENDBRANCH   4  10
ENDBRANCH   2   4
TORSDOF 7
ENDMDL
MODEL 8
REMARK VINA RESULT:   -10.602      7.190     12.419
REMARK INTER + INTRA:         -15.416
REMARK INTER:                 -14.545
REMARK INTRA:                  -0.871
REMARK UNBOUND:                -0.475
REMARK  7 active torsions:
REMARK  status: ('A' for Active; 'I' for Inactive)
REMARK    1  A    between atoms: C_2  and  C_18 
REMARK    2  A    between atoms: C_3  and  N_35 
REMARK    3  A    between atoms: C_6  and  C_20 
REMARK    4  A    between atoms: C_10  and  C_11 
REMARK    5  A    between atoms: C_11  and  C_12 
REMARK    6  A    between atoms: C_11  and  N_30 
REMARK    7  A    between atoms: C_19  and  N_35 
ROOT
HETATM    1  C   UNL     1      53.313 -16.583  -5.445  1.00  0.00     0.061 C 
HETATM    2  C   UNL     1      53.288 -15.372  -6.390  1.00  0.00     0.151 C 
HETATM    3  N   UNL     1      53.471 -17.496  -4.776  1.00  0.00    -0.197 NA
ENDROOT
BRANCH   2   4
HETATM    4  C   UNL     1      54.746 -14.984  -6.747  1.00  0.00     0.124 C 
BRANCH   4   5
HETATM    5  C   UNL     1      55.151 -13.637  -6.080  1.00  0.00     0.011 C 
HETATM    6  C   UNL     1      56.498 -13.645  -5.728  1.00  0.00     0.007 C 
HETATM    7  C   UNL     1      56.540 -13.905  -4.145  1.00  0.00     0.000 C 
HETATM    8  C   UNL     1      55.082 -13.503  -3.601  1.00  0.00     0.000 C 
HETATM    9  C   UNL     1      54.231 -13.504  -4.697  1.00  0.00     0.007 C 
ENDBRANCH   4   5
BRANCH   4  10
HETATM   10  N   UNL     1      54.775 -14.913  -8.231  1.00  0.00    -0.297 N 
HETATM   11  C   UNL     1      55.791 -15.330  -8.965  1.00  0.00     0.125 A 
HETATM   12  C   UNL     1      55.446 -15.118 -10.305  1.00  0.00     0.026 A 
HETATM   13  C   UNL     1      54.138 -14.579 -10.279  1.00  0.00     0.122 A 
HETATM   14  N   UNL     1      53.759 -14.479  -9.006  1.00  0.00    -0.309 N 
ATOM     15  HN  UNL     1      52.858 -14.134  -8.674  1.00  0.00     0.186 HD
BRANCH  12  16
HETATM   16  C   UNL     1      56.250 -15.516 -11.548  1.00  0.00     0.076 A 
HETATM   17  C   UNL     1      57.046 -14.589 -12.314  1.00  0.00     0.038 A 
HETATM   18  C   UNL     1      57.291 -13.181 -12.318  1.00  0.00     0.034 A 
HETATM   19  C   UNL     1      57.785 -15.088 -13.355  1.00  0.00     0.133 A 
HETATM   20  C   UNL     1      58.164 -12.906 -13.382  1.00  0.00     0.090 A 
HETATM   21  N   UNL     1      58.438 -14.046 -13.998  1.00  0.00    -0.351 N 
ATOM     22  HN  UNL     1      59.037 -14.142 -14.818  1.00  0.00     0.166 HD
HETATM   23  N   UNL     1      57.747 -16.444 -13.623  1.00  0.00    -0.175 N 
HETATM   24  C   UNL     1      57.023 -17.247 -12.872  1.00  0.00     0.684 A 
ATOM     25  HN  UNL     1      58.282 -16.824 -14.404  1.00  0.00     0.186 HD
HETATM   26  N   UNL     1      56.307 -16.822 -11.839  1.00  0.00    -0.190 N 
ATOM     27  HN  UNL     1      55.798 -17.493 -11.264  1.00  0.00     0.184 HD
BRANCH  24  28
HETATM   28  N   UNL     1      57.067 -18.659 -13.211  1.00  0.00    -0.192 N 
ATOM     29  HN  UNL     1      57.489 -18.888 -14.111  1.00  0.00     0.184 HD
BRANCH  28  30
HETATM   30  C   UNL     1      56.583 -19.791 -12.429  1.00  0.00     0.049 A 
HETATM   31  C   UNL     1      57.288 -21.002 -12.647  1.00  0.00     0.030 A 
HETATM   32  C   UNL     1      56.929 -22.130 -11.951  1.00  0.00     0.010 A 
HETATM   33  C   UNL     1      55.851 -22.103 -11.014  1.00  0.00    -0.054 A 
HETATM   34  C   UNL     1      55.147 -20.908 -10.793  1.00  0.00     0.010 A 
HETATM   35  C   UNL     1      55.517 -19.742 -11.511  1.00  0.00     0.030 A 
BRANCH  33  36
HETATM   36  C   UNL     1      55.549 -23.443 -10.299  1.00  0.00     0.022 C 
HETATM   37  C   UNL     1      56.303 -24.332 -11.226  1.00  0.00     0.037 C 
HETATM   38  C   UNL     1      56.067 -25.828 -11.005  1.00  0.00     0.233 C 
HETATM   39  N   UNL     1      55.119 -26.105  -9.910  1.00  0.00    -0.075 N 
HETATM   40  C   UNL     1      53.858 -25.334 -10.092  1.00  0.00     0.233 C 
ATOM     41  HN2 UNL     1      55.538 -25.931  -8.996  1.00  0.00     0.277 HD
ATOM     42  HN1 UNL     1      54.939 -27.104  -9.810  1.00  0.00     0.277 HD
HETATM   43  C   UNL     1      54.128 -23.839 -10.011  1.00  0.00     0.037 C 
ENDBRANCH  33  36
ENDBRANCH  28  30
ENDBRANCH  24  28
ENDBRANCH  12  16
ENDBRANCH   4  10
ENDBRANCH   2   4
TORSDOF 7
ENDMDL
MODEL 9
REMARK VINA RESULT:   -10.479      2.566      6.786
REMARK INTER + INTRA:         -15.241
REMARK INTER:                 -14.084
REMARK INTRA:                  -1.157
REMARK UNBOUND:                -0.475
REMARK  7 active torsions:
REMARK  status: ('A' for Active; 'I' for Inactive)
REMARK    1  A    between atoms: C_2  and  C_18 
REMARK    2  A    between atoms: C_3  and  N_35 
REMARK    3  A    between atoms: C_6  and  C_20 
REMARK    4  A    between atoms: C_10  and  C_11 
REMARK    5  A    between atoms: C_11  and  C_12 
REMARK    6  A    between atoms: C_11  and  N_30 
REMARK    7  A    between atoms: C_19  and  N_35 
ROOT
HETATM    1  C   UNL     1      48.728 -18.615  -9.029  1.00  0.00     0.061 C 
HETATM    2  C   UNL     1      49.994 -18.683  -8.162  1.00  0.00     0.151 C 
HETATM    3  N   UNL     1      47.716 -18.616  -9.560  1.00  0.00    -0.197 NA
ENDROOT
BRANCH   2   4
HETATM    4  C   UNL     1      49.581 -18.942  -6.690  1.00  0.00     0.124 C 
BRANCH   4   5
HETATM    5  C   UNL     1      50.727 -18.562  -5.707  1.00  0.00     0.011 C 
HETATM    6  C   UNL     1      50.251 -18.480  -4.401  1.00  0.00     0.007 C 
HETATM    7  C   UNL     1      50.093 -16.913  -4.086  1.00  0.00     0.000 C 
HETATM    8  C   UNL     1      51.031 -16.160  -5.151  1.00  0.00     0.000 C 
HETATM    9  C   UNL     1      51.271 -17.060  -6.180  1.00  0.00     0.007 C 
ENDBRANCH   4   5
BRANCH   4  10
HETATM   10  N   UNL     1      49.240 -20.387  -6.631  1.00  0.00    -0.297 N 
HETATM   11  C   UNL     1      50.123 -21.355  -6.787  1.00  0.00     0.125 A 
HETATM   12  C   UNL     1      49.436 -22.567  -6.649  1.00  0.00     0.026 A 
HETATM   13  C   UNL     1      48.095 -22.211  -6.366  1.00  0.00     0.122 A 
HETATM   14  N   UNL     1      48.016 -20.882  -6.353  1.00  0.00    -0.309 N 
ATOM     15  HN  UNL     1      47.176 -20.333  -6.165  1.00  0.00     0.186 HD
BRANCH  12  16
HETATM   16  C   UNL     1      50.028 -23.981  -6.655  1.00  0.00     0.076 A 
HETATM   17  C   UNL     1      49.406 -25.109  -6.006  1.00  0.00     0.038 A 
HETATM   18  C   UNL     1      48.275 -25.332  -5.162  1.00  0.00     0.034 A 
HETATM   19  C   UNL     1      49.993 -26.338  -6.157  1.00  0.00     0.133 A 
HETATM   20  C   UNL     1      48.250 -26.697  -4.838  1.00  0.00     0.090 A 
HETATM   21  N   UNL     1      49.285 -27.281  -5.425  1.00  0.00    -0.351 N 
ATOM     22  HN  UNL     1      49.524 -28.269  -5.349  1.00  0.00     0.166 HD
HETATM   23  N   UNL     1      51.138 -26.451  -6.924  1.00  0.00    -0.175 N 
HETATM   24  C   UNL     1      51.646 -25.391  -7.515  1.00  0.00     0.684 A 
ATOM     25  HN  UNL     1      51.591 -27.358  -7.032  1.00  0.00     0.186 HD
HETATM   26  N   UNL     1      51.107 -24.182  -7.422  1.00  0.00    -0.190 N 
ATOM     27  HN  UNL     1      51.517 -23.403  -7.936  1.00  0.00     0.184 HD
BRANCH  24  28
HETATM   28  N   UNL     1      52.833 -25.610  -8.323  1.00  0.00    -0.192 N 
ATOM     29  HN  UNL     1      53.071 -26.584  -8.509  1.00  0.00     0.184 HD
BRANCH  28  30
HETATM   30  C   UNL     1      53.730 -24.616  -8.900  1.00  0.00     0.049 A 
HETATM   31  C   UNL     1      54.408 -25.041 -10.069  1.00  0.00     0.030 A 
HETATM   32  C   UNL     1      55.267 -24.179 -10.708  1.00  0.00     0.010 A 
HETATM   33  C   UNL     1      55.491 -22.861 -10.207  1.00  0.00    -0.054 A 
HETATM   34  C   UNL     1      54.823 -22.431  -9.047  1.00  0.00     0.010 A 
HETATM   35  C   UNL     1      53.937 -23.320  -8.388  1.00  0.00     0.030 A 
BRANCH  33  36
HETATM   36  C   UNL     1      56.483 -21.993 -11.019  1.00  0.00     0.022 C 
HETATM   37  C   UNL     1      55.577 -20.837 -11.261  1.00  0.00     0.037 C 
HETATM   38  C   UNL     1      56.109 -19.810 -12.264  1.00  0.00     0.233 C 
HETATM   39  N   UNL     1      57.430 -20.173 -12.811  1.00  0.00    -0.075 N 
HETATM   40  C   UNL     1      57.418 -21.562 -13.346  1.00  0.00     0.233 C 
ATOM     41  HN2 UNL     1      58.172 -20.040 -12.124  1.00  0.00     0.277 HD
ATOM     42  HN1 UNL     1      57.745 -19.501 -13.511  1.00  0.00     0.277 HD
HETATM   43  C   UNL     1      57.166 -22.564 -12.229  1.00  0.00     0.037 C 
ENDBRANCH  33  36
ENDBRANCH  28  30
ENDBRANCH  24  28
ENDBRANCH  12  16
ENDBRANCH   4  10
ENDBRANCH   2   4
TORSDOF 7
ENDMDL
MODEL 10
REMARK VINA RESULT:   -10.414      3.497     12.586
REMARK INTER + INTRA:         -15.151
REMARK INTER:                 -14.268
REMARK INTRA:                  -0.883
REMARK UNBOUND:                -0.475
REMARK  7 active torsions:
REMARK  status: ('A' for Active; 'I' for Inactive)
REMARK    1  A    between atoms: C_2  and  C_18 
REMARK    2  A    between atoms: C_3  and  N_35 
REMARK    3  A    between atoms: C_6  and  C_20 
REMARK    4  A    between atoms: C_10  and  C_11 
REMARK    5  A    between atoms: C_11  and  C_12 
REMARK    6  A    between atoms: C_11  and  N_30 
REMARK    7  A    between atoms: C_19  and  N_35 
ROOT
HETATM    1  C   UNL     1      56.499 -15.142 -13.678  1.00  0.00     0.061 C 
HETATM    2  C   UNL     1      57.059 -16.259 -12.784  1.00  0.00     0.151 C 
HETATM    3  N   UNL     1      55.952 -14.362 -14.309  1.00  0.00    -0.197 NA
ENDROOT
BRANCH   2   4
HETATM    4  C   UNL     1      55.896 -16.882 -11.970  1.00  0.00     0.124 C 
BRANCH   4   5
HETATM    5  C   UNL     1      55.835 -16.292 -10.531  1.00  0.00     0.011 C 
HETATM    6  C   UNL     1      54.580 -15.747 -10.273  1.00  0.00     0.007 C 
HETATM    7  C   UNL     1      54.750 -14.157 -10.415  1.00  0.00     0.000 C 
HETATM    8  C   UNL     1      56.323 -13.872 -10.247  1.00  0.00     0.000 C 
HETATM    9  C   UNL     1      56.974 -15.077 -10.474  1.00  0.00     0.007 C 
ENDBRANCH   4   5
BRANCH   4  10
HETATM   10  N   UNL     1      56.161 -18.344 -11.972  1.00  0.00    -0.297 N 
HETATM   11  C   UNL     1      55.502 -19.209 -11.222  1.00  0.00     0.125 A 
HETATM   12  C   UNL     1      56.016 -20.479 -11.510  1.00  0.00     0.026 A 
HETATM   13  C   UNL     1      56.996 -20.273 -12.511  1.00  0.00     0.122 A 
HETATM   14  N   UNL     1      57.049 -18.969 -12.773  1.00  0.00    -0.309 N 
ATOM     15  HN  UNL     1      57.656 -18.520 -13.460  1.00  0.00     0.186 HD
BRANCH  12  16
HETATM   16  C   UNL     1      55.526 -21.827 -10.969  1.00  0.00     0.076 A 
HETATM   17  C   UNL     1      56.178 -23.083 -11.249  1.00  0.00     0.038 A 
HETATM   18  C   UNL     1      57.259 -23.537 -12.065  1.00  0.00     0.034 A 
HETATM   19  C   UNL     1      55.691 -24.208 -10.635  1.00  0.00     0.133 A 
HETATM   20  C   UNL     1      57.356 -24.928 -11.906  1.00  0.00     0.090 A 
HETATM   21  N   UNL     1      56.409 -25.315 -11.064  1.00  0.00    -0.351 N 
ATOM     22  HN  UNL     1      56.235 -26.278 -10.776  1.00  0.00     0.166 HD
HETATM   23  N   UNL     1      54.613 -24.096  -9.775  1.00  0.00    -0.175 N 
HETATM   24  C   UNL     1      54.076 -22.919  -9.537  1.00  0.00     0.684 A 
ATOM     25  HN  UNL     1      54.234 -24.928  -9.324  1.00  0.00     0.186 HD
HETATM   26  N   UNL     1      54.521 -21.795 -10.085  1.00  0.00    -0.190 N 
ATOM     27  HN  UNL     1      54.095 -20.904  -9.832  1.00  0.00     0.184 HD
BRANCH  24  28
HETATM   28  N   UNL     1      52.967 -22.895  -8.599  1.00  0.00    -0.192 N 
ATOM     29  HN  UNL     1      52.325 -22.106  -8.689  1.00  0.00     0.184 HD
BRANCH  28  30
HETATM   30  C   UNL     1      52.653 -23.852  -7.545  1.00  0.00     0.049 A 
HETATM   31  C   UNL     1      51.371 -24.448  -7.652  1.00  0.00     0.030 A 
HETATM   32  C   UNL     1      50.975 -25.378  -6.722  1.00  0.00     0.010 A 
HETATM   33  C   UNL     1      51.835 -25.751  -5.644  1.00  0.00    -0.054 A 
HETATM   34  C   UNL     1      53.107 -25.164  -5.530  1.00  0.00     0.010 A 
HETATM   35  C   UNL     1      53.516 -24.204  -6.490  1.00  0.00     0.030 A 
BRANCH  33  36
HETATM   36  C   UNL     1      51.267 -26.807  -4.666  1.00  0.00     0.022 C 
HETATM   37  C   UNL     1      52.563 -27.251  -4.084  1.00  0.00     0.037 C 
HETATM   38  C   UNL     1      52.471 -28.499  -3.202  1.00  0.00     0.233 C 
HETATM   39  N   UNL     1      51.100 -29.034  -3.104  1.00  0.00    -0.075 N 
HETATM   40  C   UNL     1      50.510 -29.228  -4.457  1.00  0.00     0.233 C 
ATOM     41  HN2 UNL     1      50.508 -28.448  -2.516  1.00  0.00     0.277 HD
ATOM     42  HN1 UNL     1      51.068 -29.891  -2.552  1.00  0.00     0.277 HD
HETATM   43  C   UNL     1      50.363 -27.894  -5.174  1.00  0.00     0.037 C 
ENDBRANCH  33  36
ENDBRANCH  28  30
ENDBRANCH  24  28
ENDBRANCH  12  16
ENDBRANCH   4  10
ENDBRANCH   2   4
TORSDOF 7
ENDMDL
MODEL 11
REMARK VINA RESULT:   -10.398      3.700     12.284
REMARK INTER + INTRA:         -15.127
REMARK INTER:                 -14.006
REMARK INTRA:                  -1.121
REMARK UNBOUND:                -0.475
REMARK  7 active torsions:
REMARK  status: ('A' for Active; 'I' for Inactive)
REMARK    1  A    between atoms: C_2  and  C_18 
REMARK    2  A    between atoms: C_3  and  N_35 
REMARK    3  A    between atoms: C_6  and  C_20 
REMARK    4  A    between atoms: C_10  and  C_11 
REMARK    5  A    between atoms: C_11  and  C_12 
REMARK    6  A    between atoms: C_11  and  N_30 
REMARK    7  A    between atoms: C_19  and  N_35 
ROOT
HETATM    1  C   UNL     1      57.056 -14.718 -10.234  1.00  0.00     0.061 C 
HETATM    2  C   UNL     1      55.947 -15.773 -10.108  1.00  0.00     0.151 C 
HETATM    3  N   UNL     1      57.884 -13.966 -10.468  1.00  0.00    -0.197 NA
ENDROOT
BRANCH   2   4
HETATM    4  C   UNL     1      55.465 -16.166 -11.528  1.00  0.00     0.124 C 
BRANCH   4   5
HETATM    5  C   UNL     1      53.939 -15.909 -11.698  1.00  0.00     0.011 C 
HETATM    6  C   UNL     1      53.709 -14.888 -12.616  1.00  0.00     0.007 C 
HETATM    7  C   UNL     1      53.358 -13.584 -11.746  1.00  0.00     0.000 C 
HETATM    8  C   UNL     1      52.899 -14.133 -10.307  1.00  0.00     0.000 C 
HETATM    9  C   UNL     1      53.375 -15.433 -10.204  1.00  0.00     0.007 C 
ENDBRANCH   4   5
BRANCH   4  10
HETATM   10  N   UNL     1      55.817 -17.603 -11.672  1.00  0.00    -0.297 N 
HETATM   11  C   UNL     1      55.274 -18.566 -10.951  1.00  0.00     0.125 A 
HETATM   12  C   UNL     1      55.839 -19.773 -11.382  1.00  0.00     0.026 A 
HETATM   13  C   UNL     1      56.723 -19.423 -12.431  1.00  0.00     0.122 A 
HETATM   14  N   UNL     1      56.675 -18.101 -12.586  1.00  0.00    -0.309 N 
ATOM     15  HN  UNL     1      57.197 -17.559 -13.275  1.00  0.00     0.186 HD
BRANCH  12  16
HETATM   16  C   UNL     1      55.477 -21.189 -10.921  1.00  0.00     0.076 A 
HETATM   17  C   UNL     1      56.197 -22.370 -11.332  1.00  0.00     0.038 A 
HETATM   18  C   UNL     1      57.258 -22.682 -12.237  1.00  0.00     0.034 A 
HETATM   19  C   UNL     1      55.826 -23.569 -10.781  1.00  0.00     0.133 A 
HETATM   20  C   UNL     1      57.460 -24.070 -12.191  1.00  0.00     0.090 A 
HETATM   21  N   UNL     1      56.593 -24.586 -11.333  1.00  0.00    -0.351 N 
ATOM     22  HN  UNL     1      56.504 -25.578 -11.111  1.00  0.00     0.166 HD
HETATM   23  N   UNL     1      54.796 -23.601  -9.859  1.00  0.00    -0.175 N 
HETATM   24  C   UNL     1      54.193 -22.487  -9.502  1.00  0.00     0.684 A 
ATOM     25  HN  UNL     1      54.502 -24.490  -9.454  1.00  0.00     0.186 HD
HETATM   26  N   UNL     1      54.526 -21.297  -9.985  1.00  0.00    -0.190 N 
ATOM     27  HN  UNL     1      54.055 -20.460  -9.641  1.00  0.00     0.184 HD
BRANCH  24  28
HETATM   28  N   UNL     1      53.142 -22.613  -8.508  1.00  0.00    -0.192 N 
ATOM     29  HN  UNL     1      52.503 -21.822  -8.433  1.00  0.00     0.184 HD
BRANCH  28  30
HETATM   30  C   UNL     1      52.883 -23.727  -7.603  1.00  0.00     0.049 A 
HETATM   31  C   UNL     1      51.810 -24.567  -7.993  1.00  0.00     0.030 A 
HETATM   32  C   UNL     1      51.488 -25.659  -7.223  1.00  0.00     0.010 A 
HETATM   33  C   UNL     1      52.214 -25.955  -6.030  1.00  0.00    -0.054 A 
HETATM   34  C   UNL     1      53.278 -25.127  -5.635  1.00  0.00     0.010 A 
HETATM   35  C   UNL     1      53.612 -24.001  -6.430  1.00  0.00     0.030 A 
BRANCH  33  36
HETATM   36  C   UNL     1      51.747 -27.211  -5.254  1.00  0.00     0.022 C 
HETATM   37  C   UNL     1      50.289 -26.915  -5.265  1.00  0.00     0.037 C 
HETATM   38  C   UNL     1      49.447 -27.828  -4.369  1.00  0.00     0.233 C 
HETATM   39  N   UNL     1      50.255 -28.831  -3.651  1.00  0.00    -0.075 N 
HETATM   40  C   UNL     1      51.386 -28.184  -2.931  1.00  0.00     0.233 C 
ATOM     41  HN2 UNL     1      50.579 -29.570  -4.275  1.00  0.00     0.277 HD
ATOM     42  HN1 UNL     1      49.683 -29.397  -3.024  1.00  0.00     0.277 HD
HETATM   43  C   UNL     1      52.347 -27.536  -3.916  1.00  0.00     0.037 C 
ENDBRANCH  33  36
ENDBRANCH  28  30
ENDBRANCH  24  28
ENDBRANCH  12  16
ENDBRANCH   4  10
ENDBRANCH   2   4
TORSDOF 7
ENDMDL
MODEL 12
REMARK VINA RESULT:   -10.382      4.947      9.549
REMARK INTER + INTRA:         -15.105
REMARK INTER:                 -13.871
REMARK INTRA:                  -1.234
REMARK UNBOUND:                -0.475
REMARK  7 active torsions:
REMARK  status: ('A' for Active; 'I' for Inactive)
REMARK    1  A    between atoms: C_2  and  C_18 
REMARK    2  A    between atoms: C_3  and  N_35 
REMARK    3  A    between atoms: C_6  and  C_20 
REMARK    4  A    between atoms: C_10  and  C_11 
REMARK    5  A    between atoms: C_11  and  C_12 
REMARK    6  A    between atoms: C_11  and  N_30 
REMARK    7  A    between atoms: C_19  and  N_35 
ROOT
HETATM    1  C   UNL     1      51.716 -24.899 -10.263  1.00  0.00     0.061 C 
HETATM    2  C   UNL     1      51.520 -24.669  -8.757  1.00  0.00     0.151 C 
HETATM    3  N   UNL     1      51.991 -25.009 -11.367  1.00  0.00    -0.197 NA
ENDROOT
BRANCH   2   4
HETATM    4  C   UNL     1      52.879 -24.270  -8.128  1.00  0.00     0.124 C 
BRANCH   4   5
HETATM    5  C   UNL     1      52.769 -24.138  -6.581  1.00  0.00     0.011 C 
HETATM    6  C   UNL     1      53.962 -24.510  -5.967  1.00  0.00     0.007 C 
HETATM    7  C   UNL     1      53.721 -25.989  -5.391  1.00  0.00     0.000 C 
HETATM    8  C   UNL     1      52.126 -26.159  -5.287  1.00  0.00     0.000 C 
HETATM    9  C   UNL     1      51.566 -25.189  -6.106  1.00  0.00     0.007 C 
ENDBRANCH   4   5
BRANCH   4  10
HETATM   10  N   UNL     1      53.246 -22.986  -8.782  1.00  0.00    -0.297 N 
HETATM   11  C   UNL     1      54.360 -22.806  -9.467  1.00  0.00     0.125 A 
HETATM   12  C   UNL     1      54.344 -21.487  -9.940  1.00  0.00     0.026 A 
HETATM   13  C   UNL     1      53.114 -20.942  -9.498  1.00  0.00     0.122 A 
HETATM   14  N   UNL     1      52.471 -21.882  -8.809  1.00  0.00    -0.309 N 
ATOM     15  HN  UNL     1      51.552 -21.785  -8.376  1.00  0.00     0.186 HD
BRANCH  12  16
HETATM   16  C   UNL     1      55.367 -20.816 -10.862  1.00  0.00     0.076 A 
HETATM   17  C   UNL     1      56.300 -21.546 -11.685  1.00  0.00     0.038 A 
HETATM   18  C   UNL     1      56.675 -22.912 -11.874  1.00  0.00     0.034 A 
HETATM   19  C   UNL     1      57.106 -20.829 -12.530  1.00  0.00     0.133 A 
HETATM   20  C   UNL     1      57.707 -22.941 -12.824  1.00  0.00     0.090 A 
HETATM   21  N   UNL     1      57.963 -21.695 -13.195  1.00  0.00    -0.351 N 
ATOM     22  HN  UNL     1      58.679 -21.416 -13.866  1.00  0.00     0.166 HD
HETATM   23  N   UNL     1      56.990 -19.452 -12.569  1.00  0.00    -0.175 N 
HETATM   24  C   UNL     1      56.102 -18.841 -11.815  1.00  0.00     0.684 A 
ATOM     25  HN  UNL     1      57.595 -18.907 -13.183  1.00  0.00     0.186 HD
HETATM   26  N   UNL     1      55.281 -19.486 -10.996  1.00  0.00    -0.190 N 
ATOM     27  HN  UNL     1      54.581 -18.967 -10.466  1.00  0.00     0.184 HD
BRANCH  24  28
HETATM   28  N   UNL     1      56.033 -17.396 -11.942  1.00  0.00    -0.192 N 
ATOM     29  HN  UNL     1      56.514 -16.997 -12.749  1.00  0.00     0.184 HD
BRANCH  28  30
HETATM   30  C   UNL     1      55.364 -16.442 -11.066  1.00  0.00     0.049 A 
HETATM   31  C   UNL     1      56.165 -15.957 -10.001  1.00  0.00     0.030 A 
HETATM   32  C   UNL     1      55.643 -15.040  -9.121  1.00  0.00     0.010 A 
HETATM   33  C   UNL     1      54.301 -14.571  -9.261  1.00  0.00    -0.054 A 
HETATM   34  C   UNL     1      53.500 -15.046 -10.313  1.00  0.00     0.010 A 
HETATM   35  C   UNL     1      54.038 -15.993 -11.221  1.00  0.00     0.030 A 
BRANCH  33  36
HETATM   36  C   UNL     1      53.836 -13.541  -8.202  1.00  0.00     0.022 C 
HETATM   37  C   UNL     1      54.988 -13.688  -7.270  1.00  0.00     0.037 C 
HETATM   38  C   UNL     1      54.808 -12.985  -5.922  1.00  0.00     0.233 C 
HETATM   39  N   UNL     1      53.510 -12.297  -5.800  1.00  0.00    -0.075 N 
HETATM   40  C   UNL     1      52.389 -13.219  -6.134  1.00  0.00     0.233 C 
ATOM     41  HN2 UNL     1      53.479 -11.448  -6.364  1.00  0.00     0.277 HD
ATOM     42  HN1 UNL     1      53.390 -11.877  -4.879  1.00  0.00     0.277 HD
HETATM   43  C   UNL     1      52.470 -13.655  -7.590  1.00  0.00     0.037 C 
ENDBRANCH  33  36
ENDBRANCH  28  30
ENDBRANCH  24  28
ENDBRANCH  12  16
ENDBRANCH   4  10
ENDBRANCH   2   4
TORSDOF 7
ENDMDL
MODEL 13
REMARK VINA RESULT:   -10.302      5.464      9.893
REMARK INTER + INTRA:         -14.992
REMARK INTER:                 -14.222
REMARK INTRA:                  -0.770
REMARK UNBOUND:                -0.475
REMARK  7 active torsions:
REMARK  status: ('A' for Active; 'I' for Inactive)
REMARK    1  A    between atoms: C_2  and  C_18 
REMARK    2  A    between atoms: C_3  and  N_35 
REMARK    3  A    between atoms: C_6  and  C_20 
REMARK    4  A    between atoms: C_10  and  C_11 
REMARK    5  A    between atoms: C_11  and  C_12 
REMARK    6  A    between atoms: C_11  and  N_30 
REMARK    7  A    between atoms: C_19  and  N_35 
ROOT
HETATM    1  C   UNL     1      53.379 -24.575  -5.880  1.00  0.00     0.061 C 
HETATM    2  C   UNL     1      53.752 -23.613  -7.018  1.00  0.00     0.151 C 
HETATM    3  N   UNL     1      52.969 -25.290  -5.089  1.00  0.00    -0.197 NA
ENDROOT
BRANCH   2   4
HETATM    4  C   UNL     1      52.598 -23.587  -8.053  1.00  0.00     0.124 C 
BRANCH   4   5
HETATM    5  C   UNL     1      52.467 -24.954  -8.786  1.00  0.00     0.011 C 
HETATM    6  C   UNL     1      53.695 -25.356  -9.306  1.00  0.00     0.007 C 
HETATM    7  C   UNL     1      53.636 -25.036 -10.878  1.00  0.00     0.000 C 
HETATM    8  C   UNL     1      52.074 -24.922 -11.239  1.00  0.00     0.000 C 
HETATM    9  C   UNL     1      51.402 -24.710 -10.044  1.00  0.00     0.007 C 
ENDBRANCH   4   5
BRANCH   4  10
HETATM   10  N   UNL     1      52.932 -22.476  -8.980  1.00  0.00    -0.297 N 
HETATM   11  C   UNL     1      54.165 -22.170  -9.342  1.00  0.00     0.125 A 
HETATM   12  C   UNL     1      54.078 -21.089 -10.228  1.00  0.00     0.026 A 
HETATM   13  C   UNL     1      52.694 -20.826 -10.370  1.00  0.00     0.122 A 
HETATM   14  N   UNL     1      52.030 -21.693  -9.607  1.00  0.00    -0.309 N 
ATOM     15  HN  UNL     1      51.016 -21.754  -9.513  1.00  0.00     0.186 HD
BRANCH  12  16
HETATM   16  C   UNL     1      55.222 -20.421 -10.999  1.00  0.00     0.076 A 
HETATM   17  C   UNL     1      56.171 -21.148 -11.806  1.00  0.00     0.038 A 
HETATM   18  C   UNL     1      56.465 -22.517 -12.089  1.00  0.00     0.034 A 
HETATM   19  C   UNL     1      57.096 -20.425 -12.514  1.00  0.00     0.133 A 
HETATM   20  C   UNL     1      57.573 -22.543 -12.951  1.00  0.00     0.090 A 
HETATM   21  N   UNL     1      57.946 -21.293 -13.184  1.00  0.00    -0.351 N 
ATOM     22  HN  UNL     1      58.735 -21.013 -13.765  1.00  0.00     0.166 HD
HETATM   23  N   UNL     1      57.079 -19.044 -12.434  1.00  0.00    -0.175 N 
HETATM   24  C   UNL     1      56.172 -18.434 -11.702  1.00  0.00     0.684 A 
ATOM     25  HN  UNL     1      57.772 -18.496 -12.945  1.00  0.00     0.186 HD
HETATM   26  N   UNL     1      55.240 -19.082 -11.016  1.00  0.00    -0.190 N 
ATOM     27  HN  UNL     1      54.534 -18.558 -10.499  1.00  0.00     0.184 HD
BRANCH  24  28
HETATM   28  N   UNL     1      56.215 -16.982 -11.701  1.00  0.00    -0.192 N 
ATOM     29  HN  UNL     1      57.138 -16.564 -11.587  1.00  0.00     0.184 HD
BRANCH  28  30
HETATM   30  C   UNL     1      55.106 -16.045 -11.843  1.00  0.00     0.049 A 
HETATM   31  C   UNL     1      55.134 -15.273 -13.031  1.00  0.00     0.030 A 
HETATM   32  C   UNL     1      54.129 -14.369 -13.278  1.00  0.00     0.010 A 
HETATM   33  C   UNL     1      53.058 -14.191 -12.350  1.00  0.00    -0.054 A 
HETATM   34  C   UNL     1      53.024 -14.952 -11.169  1.00  0.00     0.010 A 
HETATM   35  C   UNL     1      54.060 -15.885 -10.914  1.00  0.00     0.030 A 
BRANCH  33  36
HETATM   36  C   UNL     1      51.994 -13.140 -12.747  1.00  0.00     0.022 C 
HETATM   37  C   UNL     1      51.797 -13.584 -14.154  1.00  0.00     0.037 C 
HETATM   38  C   UNL     1      50.959 -12.632 -15.011  1.00  0.00     0.233 C 
HETATM   39  N   UNL     1      50.510 -11.438 -14.271  1.00  0.00    -0.075 N 
HETATM   40  C   UNL     1      51.658 -10.766 -13.602  1.00  0.00     0.233 C 
ATOM     41  HN2 UNL     1      49.766 -11.662 -13.610  1.00  0.00     0.277 HD
ATOM     42  HN1 UNL     1      49.994 -10.794 -14.872  1.00  0.00     0.277 HD
HETATM   43  C   UNL     1      52.269 -11.677 -12.547  1.00  0.00     0.037 C 
ENDBRANCH  33  36
ENDBRANCH  28  30
ENDBRANCH  24  28
ENDBRANCH  12  16
ENDBRANCH   4  10
ENDBRANCH   2   4
TORSDOF 7
ENDMDL
MODEL 14
REMARK VINA RESULT:   -10.289      2.079      3.580
REMARK INTER + INTRA:         -14.974
REMARK INTER:                 -14.206
REMARK INTRA:                  -0.768
REMARK UNBOUND:                -0.475
REMARK  7 active torsions:
REMARK  status: ('A' for Active; 'I' for Inactive)
REMARK    1  A    between atoms: C_2  and  C_18 
REMARK    2  A    between atoms: C_3  and  N_35 
REMARK    3  A    between atoms: C_6  and  C_20 
REMARK    4  A    between atoms: C_10  and  C_11 
REMARK    5  A    between atoms: C_11  and  C_12 
REMARK    6  A    between atoms: C_11  and  N_30 
REMARK    7  A    between atoms: C_19  and  N_35 
ROOT
HETATM    1  C   UNL     1      46.047 -26.401  -4.705  1.00  0.00     0.061 C 
HETATM    2  C   UNL     1      47.515 -26.245  -4.280  1.00  0.00     0.151 C 
HETATM    3  N   UNL     1      45.006 -26.557  -5.149  1.00  0.00    -0.197 NA
ENDROOT
BRANCH   2   4
HETATM    4  C   UNL     1      48.420 -26.900  -5.354  1.00  0.00     0.124 C 
BRANCH   4   5
HETATM    5  C   UNL     1      49.200 -28.114  -4.772  1.00  0.00     0.011 C 
HETATM    6  C   UNL     1      48.598 -29.314  -5.144  1.00  0.00     0.007 C 
HETATM    7  C   UNL     1      47.781 -29.815  -3.855  1.00  0.00     0.000 C 
HETATM    8  C   UNL     1      48.437 -29.052  -2.602  1.00  0.00     0.000 C 
HETATM    9  C   UNL     1      49.131 -27.964  -3.114  1.00  0.00     0.007 C 
ENDBRANCH   4   5
BRANCH   4  10
HETATM   10  N   UNL     1      49.324 -25.813  -5.814  1.00  0.00    -0.297 N 
HETATM   11  C   UNL     1      48.902 -24.708  -6.399  1.00  0.00     0.125 A 
HETATM   12  C   UNL     1      50.033 -23.926  -6.668  1.00  0.00     0.026 A 
HETATM   13  C   UNL     1      51.130 -24.659  -6.156  1.00  0.00     0.122 A 
HETATM   14  N   UNL     1      50.662 -25.793  -5.637  1.00  0.00    -0.309 N 
ATOM     15  HN  UNL     1      51.217 -26.519  -5.184  1.00  0.00     0.186 HD
BRANCH  12  16
HETATM   16  C   UNL     1      50.069 -22.511  -7.257  1.00  0.00     0.076 A 
HETATM   17  C   UNL     1      49.025 -21.537  -7.057  1.00  0.00     0.038 A 
HETATM   18  C   UNL     1      47.731 -21.505  -6.450  1.00  0.00     0.034 A 
HETATM   19  C   UNL     1      49.217 -20.279  -7.566  1.00  0.00     0.133 A 
HETATM   20  C   UNL     1      47.205 -20.218  -6.642  1.00  0.00     0.090 A 
HETATM   21  N   UNL     1      48.092 -19.504  -7.319  1.00  0.00    -0.351 N 
ATOM     22  HN  UNL     1      47.968 -18.535  -7.613  1.00  0.00     0.166 HD
HETATM   23  N   UNL     1      50.392 -19.993  -8.237  1.00  0.00    -0.175 N 
HETATM   24  C   UNL     1      51.321 -20.915  -8.366  1.00  0.00     0.684 A 
ATOM     25  HN  UNL     1      50.539 -19.065  -8.633  1.00  0.00     0.186 HD
HETATM   26  N   UNL     1      51.199 -22.141  -7.873  1.00  0.00    -0.190 N 
ATOM     27  HN  UNL     1      51.968 -22.804  -7.964  1.00  0.00     0.184 HD
BRANCH  24  28
HETATM   28  N   UNL     1      52.533 -20.516  -9.061  1.00  0.00    -0.192 N 
ATOM     29  HN  UNL     1      52.656 -19.513  -9.201  1.00  0.00     0.184 HD
BRANCH  28  30
HETATM   30  C   UNL     1      53.597 -21.365  -9.584  1.00  0.00     0.049 A 
HETATM   31  C   UNL     1      54.501 -20.709 -10.455  1.00  0.00     0.030 A 
HETATM   32  C   UNL     1      55.554 -21.408 -10.994  1.00  0.00     0.010 A 
HETATM   33  C   UNL     1      55.746 -22.792 -10.694  1.00  0.00    -0.054 A 
HETATM   34  C   UNL     1      54.854 -23.450  -9.832  1.00  0.00     0.010 A 
HETATM   35  C   UNL     1      53.768 -22.729  -9.275  1.00  0.00     0.030 A 
BRANCH  33  36
HETATM   36  C   UNL     1      56.968 -23.461 -11.369  1.00  0.00     0.022 C 
HETATM   37  C   UNL     1      56.938 -22.685 -12.639  1.00  0.00     0.037 C 
HETATM   38  C   UNL     1      57.877 -23.211 -13.729  1.00  0.00     0.233 C 
HETATM   39  N   UNL     1      58.633 -24.405 -13.308  1.00  0.00    -0.075 N 
HETATM   40  C   UNL     1      57.718 -25.449 -12.770  1.00  0.00     0.233 C 
ATOM     41  HN2 UNL     1      59.369 -24.170 -12.643  1.00  0.00     0.277 HD
ATOM     42  HN1 UNL     1      59.216 -24.767 -14.063  1.00  0.00     0.277 HD
HETATM   43  C   UNL     1      57.026 -24.956 -11.508  1.00  0.00     0.037 C 
ENDBRANCH  33  36
ENDBRANCH  28  30
ENDBRANCH  24  28
ENDBRANCH  12  16
ENDBRANCH   4  10
ENDBRANCH   2   4
TORSDOF 7
ENDMDL
MODEL 15
REMARK VINA RESULT:   -10.240      7.155     12.708
REMARK INTER + INTRA:         -14.905
REMARK INTER:                 -13.912
REMARK INTRA:                  -0.993
REMARK UNBOUND:                -0.475
REMARK  7 active torsions:
REMARK  status: ('A' for Active; 'I' for Inactive)
REMARK    1  A    between atoms: C_2  and  C_18 
REMARK    2  A    between atoms: C_3  and  N_35 
REMARK    3  A    between atoms: C_6  and  C_20 
REMARK    4  A    between atoms: C_10  and  C_11 
REMARK    5  A    between atoms: C_11  and  C_12 
REMARK    6  A    between atoms: C_11  and  N_30 
REMARK    7  A    between atoms: C_19  and  N_35 
ROOT
HETATM    1  C   UNL     1      52.989 -11.842  -7.026  1.00  0.00     0.061 C 
HETATM    2  C   UNL     1      54.281 -12.591  -7.386  1.00  0.00     0.151 C 
HETATM    3  N   UNL     1      51.960 -11.410  -6.779  1.00  0.00    -0.197 NA
ENDROOT
BRANCH   2   4
HETATM    4  C   UNL     1      53.990 -14.113  -7.404  1.00  0.00     0.124 C 
BRANCH   4   5
HETATM    5  C   UNL     1      54.983 -14.888  -6.489  1.00  0.00     0.011 C 
HETATM    6  C   UNL     1      54.298 -15.599  -5.507  1.00  0.00     0.007 C 
HETATM    7  C   UNL     1      54.450 -14.744  -4.156  1.00  0.00     0.000 C 
HETATM    8  C   UNL     1      55.723 -13.791  -4.387  1.00  0.00     0.000 C 
HETATM    9  C   UNL     1      55.940 -13.738  -5.757  1.00  0.00     0.007 C 
ENDBRANCH   4   5
BRANCH   4  10
HETATM   10  N   UNL     1      54.105 -14.513  -8.830  1.00  0.00    -0.297 N 
HETATM   11  C   UNL     1      55.256 -14.712  -9.446  1.00  0.00     0.125 A 
HETATM   12  C   UNL     1      54.960 -15.090 -10.761  1.00  0.00     0.026 A 
HETATM   13  C   UNL     1      53.547 -15.124 -10.837  1.00  0.00     0.122 A 
HETATM   14  N   UNL     1      53.063 -14.779  -9.645  1.00  0.00    -0.309 N 
ATOM     15  HN  UNL     1      52.076 -14.726  -9.392  1.00  0.00     0.186 HD
BRANCH  12  16
HETATM   16  C   UNL     1      55.948 -15.518 -11.852  1.00  0.00     0.076 A 
HETATM   17  C   UNL     1      56.782 -14.593 -12.581  1.00  0.00     0.038 A 
HETATM   18  C   UNL     1      56.937 -13.175 -12.667  1.00  0.00     0.034 A 
HETATM   19  C   UNL     1      57.685 -15.111 -13.472  1.00  0.00     0.133 A 
HETATM   20  C   UNL     1      57.928 -12.915 -13.626  1.00  0.00     0.090 A 
HETATM   21  N   UNL     1      58.354 -14.074 -14.106  1.00  0.00    -0.351 N 
ATOM     22  HN  UNL     1      59.063 -14.186 -14.831  1.00  0.00     0.166 HD
HETATM   23  N   UNL     1      57.768 -16.483 -13.631  1.00  0.00    -0.175 N 
HETATM   24  C   UNL     1      57.001 -17.279 -12.919  1.00  0.00     0.684 A 
ATOM     25  HN  UNL     1      58.427 -16.878 -14.302  1.00  0.00     0.186 HD
HETATM   26  N   UNL     1      56.126 -16.834 -12.026  1.00  0.00    -0.190 N 
ATOM     27  HN  UNL     1      55.586 -17.497 -11.470  1.00  0.00     0.184 HD
BRANCH  24  28
HETATM   28  N   UNL     1      57.177 -18.705 -13.132  1.00  0.00    -0.192 N 
ATOM     29  HN  UNL     1      57.766 -18.967 -13.923  1.00  0.00     0.184 HD
BRANCH  28  30
HETATM   30  C   UNL     1      56.621 -19.810 -12.362  1.00  0.00     0.049 A 
HETATM   31  C   UNL     1      57.199 -21.074 -12.640  1.00  0.00     0.030 A 
HETATM   32  C   UNL     1      56.763 -22.185 -11.959  1.00  0.00     0.010 A 
HETATM   33  C   UNL     1      55.730 -22.086 -10.978  1.00  0.00    -0.054 A 
HETATM   34  C   UNL     1      55.150 -20.838 -10.697  1.00  0.00     0.010 A 
HETATM   35  C   UNL     1      55.600 -19.691 -11.399  1.00  0.00     0.030 A 
BRANCH  33  36
HETATM   36  C   UNL     1      55.331 -23.413 -10.287  1.00  0.00     0.022 C 
HETATM   37  C   UNL     1      56.203 -24.318 -11.086  1.00  0.00     0.037 C 
HETATM   38  C   UNL     1      55.937 -25.810 -10.872  1.00  0.00     0.233 C 
HETATM   39  N   UNL     1      54.848 -26.068  -9.911  1.00  0.00    -0.075 N 
HETATM   40  C   UNL     1      53.625 -25.302 -10.278  1.00  0.00     0.233 C 
ATOM     41  HN2 UNL     1      55.139 -25.877  -8.953  1.00  0.00     0.277 HD
ATOM     42  HN1 UNL     1      54.655 -27.065  -9.819  1.00  0.00     0.277 HD
HETATM   43  C   UNL     1      53.884 -23.805 -10.188  1.00  0.00     0.037 C 
ENDBRANCH  33  36
ENDBRANCH  28  30
ENDBRANCH  24  28
ENDBRANCH  12  16
ENDBRANCH   4  10
ENDBRANCH   2   4
TORSDOF 7
ENDMDL
MODEL 16
REMARK VINA RESULT:   -10.070      2.532      5.994
REMARK INTER + INTRA:         -14.665
REMARK INTER:                 -13.700
REMARK INTRA:                  -0.966
REMARK UNBOUND:                -0.475
REMARK  7 active torsions:
REMARK  status: ('A' for Active; 'I' for Inactive)
REMARK    1  A    between atoms: C_2  and  C_18 
REMARK    2  A    between atoms: C_3  and  N_35 
REMARK    3  A    between atoms: C_6  and  C_20 
REMARK    4  A    between atoms: C_10  and  C_11 
REMARK    5  A    between atoms: C_11  and  C_12 
REMARK    6  A    between atoms: C_11  and  N_30 
REMARK    7  A    between atoms: C_19  and  N_35 
ROOT
HETATM    1  C   UNL     1      46.641 -16.921  -7.149  1.00  0.00     0.061 C 
HETATM    2  C   UNL     1      47.233 -18.165  -6.471  1.00  0.00     0.151 C 
HETATM    3  N   UNL     1      46.162 -16.083  -7.761  1.00  0.00    -0.197 NA
ENDROOT
BRANCH   2   4
HETATM    4  C   UNL     1      46.738 -19.429  -7.219  1.00  0.00     0.124 C 
BRANCH   4   5
HETATM    5  C   UNL     1      45.576 -20.122  -6.450  1.00  0.00     0.011 C 
HETATM    6  C   UNL     1      44.362 -19.926  -7.103  1.00  0.00     0.007 C 
HETATM    7  C   UNL     1      43.599 -18.777  -6.281  1.00  0.00     0.000 C 
HETATM    8  C   UNL     1      44.282 -18.759  -4.826  1.00  0.00     0.000 C 
HETATM    9  C   UNL     1      45.508 -19.396  -4.951  1.00  0.00     0.007 C 
ENDBRANCH   4   5
BRANCH   4  10
HETATM   10  N   UNL     1      47.935 -20.300  -7.344  1.00  0.00    -0.297 N 
HETATM   11  C   UNL     1      47.995 -21.534  -6.878  1.00  0.00     0.125 A 
HETATM   12  C   UNL     1      49.263 -22.035  -7.197  1.00  0.00     0.026 A 
HETATM   13  C   UNL     1      49.909 -20.999  -7.914  1.00  0.00     0.122 A 
HETATM   14  N   UNL     1      49.070 -19.967  -7.993  1.00  0.00    -0.309 N 
ATOM     15  HN  UNL     1      49.254 -19.080  -8.461  1.00  0.00     0.186 HD
BRANCH  12  16
HETATM   16  C   UNL     1      49.794 -23.452  -6.954  1.00  0.00     0.076 A 
HETATM   17  C   UNL     1      49.058 -24.468  -6.241  1.00  0.00     0.038 A 
HETATM   18  C   UNL     1      47.833 -24.548  -5.511  1.00  0.00     0.034 A 
HETATM   19  C   UNL     1      49.608 -25.721  -6.166  1.00  0.00     0.133 A 
HETATM   20  C   UNL     1      47.717 -25.858  -5.020  1.00  0.00     0.090 A 
HETATM   21  N   UNL     1      48.786 -26.540  -5.405  1.00  0.00    -0.351 N 
ATOM     22  HN  UNL     1      48.974 -27.516  -5.176  1.00  0.00     0.166 HD
HETATM   23  N   UNL     1      50.825 -25.964  -6.775  1.00  0.00    -0.175 N 
HETATM   24  C   UNL     1      51.438 -25.005  -7.436  1.00  0.00     0.684 A 
ATOM     25  HN  UNL     1      51.250 -26.889  -6.713  1.00  0.00     0.186 HD
HETATM   26  N   UNL     1      50.942 -23.780  -7.560  1.00  0.00    -0.190 N 
ATOM     27  HN  UNL     1      51.437 -23.087  -8.120  1.00  0.00     0.184 HD
BRANCH  24  28
HETATM   28  N   UNL     1      52.697 -25.359  -8.066  1.00  0.00    -0.192 N 
ATOM     29  HN  UNL     1      52.948 -26.348  -8.035  1.00  0.00     0.184 HD
BRANCH  28  30
HETATM   30  C   UNL     1      53.650 -24.484  -8.738  1.00  0.00     0.049 A 
HETATM   31  C   UNL     1      54.249 -25.041  -9.896  1.00  0.00     0.030 A 
HETATM   32  C   UNL     1      55.150 -24.297 -10.619  1.00  0.00     0.010 A 
HETATM   33  C   UNL     1      55.498 -22.972 -10.217  1.00  0.00    -0.054 A 
HETATM   34  C   UNL     1      54.910 -22.412  -9.070  1.00  0.00     0.010 A 
HETATM   35  C   UNL     1      53.979 -23.179  -8.323  1.00  0.00     0.030 A 
BRANCH  33  36
HETATM   36  C   UNL     1      56.527 -22.245 -11.117  1.00  0.00     0.022 C 
HETATM   37  C   UNL     1      55.772 -20.974 -11.288  1.00  0.00     0.037 C 
HETATM   38  C   UNL     1      56.353 -20.025 -12.340  1.00  0.00     0.233 C 
HETATM   39  N   UNL     1      57.559 -20.564 -12.996  1.00  0.00    -0.075 N 
HETATM   40  C   UNL     1      57.309 -21.935 -13.519  1.00  0.00     0.233 C 
ATOM     41  HN2 UNL     1      58.368 -20.539 -12.376  1.00  0.00     0.277 HD
ATOM     42  HN1 UNL     1      57.903 -19.939 -13.725  1.00  0.00     0.277 HD
HETATM   43  C   UNL     1      57.018 -22.899 -12.378  1.00  0.00     0.037 C 
ENDBRANCH  33  36
ENDBRANCH  28  30
ENDBRANCH  24  28
ENDBRANCH  12  16
ENDBRANCH   4  10
ENDBRANCH   2   4
TORSDOF 7
ENDMDL
MODEL 17
REMARK VINA RESULT:   -10.070      1.846      3.167
REMARK INTER + INTRA:         -14.665
REMARK INTER:                 -13.969
REMARK INTRA:                  -0.696
REMARK UNBOUND:                -0.475
REMARK  7 active torsions:
REMARK  status: ('A' for Active; 'I' for Inactive)
REMARK    1  A    between atoms: C_2  and  C_18 
REMARK    2  A    between atoms: C_3  and  N_35 
REMARK    3  A    between atoms: C_6  and  C_20 
REMARK    4  A    between atoms: C_10  and  C_11 
REMARK    5  A    between atoms: C_11  and  C_12 
REMARK    6  A    between atoms: C_11  and  N_30 
REMARK    7  A    between atoms: C_19  and  N_35 
ROOT
HETATM    1  C   UNL     1      44.042 -25.900  -3.081  1.00  0.00     0.061 C 
HETATM    2  C   UNL     1      44.509 -26.506  -4.412  1.00  0.00     0.151 C 
HETATM    3  N   UNL     1      43.820 -25.494  -2.036  1.00  0.00    -0.197 NA
ENDROOT
BRANCH   2   4
HETATM    4  C   UNL     1      46.013 -26.862  -4.302  1.00  0.00     0.124 C 
BRANCH   4   5
HETATM    5  C   UNL     1      46.330 -27.567  -2.951  1.00  0.00     0.011 C 
HETATM    6  C   UNL     1      47.667 -27.393  -2.603  1.00  0.00     0.007 C 
HETATM    7  C   UNL     1      48.400 -28.776  -2.961  1.00  0.00     0.000 C 
HETATM    8  C   UNL     1      47.233 -29.880  -3.031  1.00  0.00     0.000 C 
HETATM    9  C   UNL     1      46.039 -29.190  -3.190  1.00  0.00     0.007 C 
ENDBRANCH   4   5
BRANCH   4  10
HETATM   10  N   UNL     1      46.730 -25.568  -4.448  1.00  0.00    -0.297 N 
HETATM   11  C   UNL     1      47.662 -25.345  -5.356  1.00  0.00     0.125 A 
HETATM   12  C   UNL     1      48.086 -24.020  -5.196  1.00  0.00     0.026 A 
HETATM   13  C   UNL     1      47.294 -23.495  -4.146  1.00  0.00     0.122 A 
HETATM   14  N   UNL     1      46.477 -24.458  -3.725  1.00  0.00    -0.309 N 
ATOM     15  HN  UNL     1      45.780 -24.371  -2.984  1.00  0.00     0.186 HD
BRANCH  12  16
HETATM   16  C   UNL     1      49.088 -23.250  -6.063  1.00  0.00     0.076 A 
HETATM   17  C   UNL     1      48.811 -21.962  -6.648  1.00  0.00     0.038 A 
HETATM   18  C   UNL     1      47.690 -21.082  -6.750  1.00  0.00     0.034 A 
HETATM   19  C   UNL     1      49.823 -21.339  -7.332  1.00  0.00     0.133 A 
HETATM   20  C   UNL     1      48.089 -19.972  -7.510  1.00  0.00     0.090 A 
HETATM   21  N   UNL     1      49.355 -20.145  -7.861  1.00  0.00    -0.351 N 
ATOM     22  HN  UNL     1      49.900 -19.499  -8.432  1.00  0.00     0.166 HD
HETATM   23  N   UNL     1      51.056 -21.958  -7.427  1.00  0.00    -0.175 N 
HETATM   24  C   UNL     1      51.259 -23.122  -6.849  1.00  0.00     0.684 A 
ATOM     25  HN  UNL     1      51.812 -21.510  -7.946  1.00  0.00     0.186 HD
HETATM   26  N   UNL     1      50.324 -23.759  -6.155  1.00  0.00    -0.190 N 
ATOM     27  HN  UNL     1      50.547 -24.639  -5.691  1.00  0.00     0.184 HD
BRANCH  24  28
HETATM   28  N   UNL     1      52.593 -23.682  -6.977  1.00  0.00    -0.192 N 
ATOM     29  HN  UNL     1      53.032 -23.989  -6.109  1.00  0.00     0.184 HD
BRANCH  28  30
HETATM   30  C   UNL     1      53.385 -23.861  -8.188  1.00  0.00     0.049 A 
HETATM   31  C   UNL     1      54.113 -22.714  -8.592  1.00  0.00     0.030 A 
HETATM   32  C   UNL     1      54.908 -22.773  -9.711  1.00  0.00     0.010 A 
HETATM   33  C   UNL     1      55.008 -23.974 -10.478  1.00  0.00    -0.054 A 
HETATM   34  C   UNL     1      54.289 -25.115 -10.085  1.00  0.00     0.010 A 
HETATM   35  C   UNL     1      53.468 -25.055  -8.930  1.00  0.00     0.030 A 
BRANCH  33  36
HETATM   36  C   UNL     1      55.935 -23.905 -11.715  1.00  0.00     0.022 C 
HETATM   37  C   UNL     1      56.646 -25.194 -11.497  1.00  0.00     0.037 C 
HETATM   38  C   UNL     1      57.859 -25.414 -12.405  1.00  0.00     0.233 C 
HETATM   39  N   UNL     1      58.098 -24.288 -13.327  1.00  0.00    -0.075 N 
HETATM   40  C   UNL     1      58.148 -22.998 -12.586  1.00  0.00     0.233 C 
ATOM     41  HN2 UNL     1      57.409 -24.264 -14.079  1.00  0.00     0.277 HD
ATOM     42  HN1 UNL     1      58.936 -24.432 -13.890  1.00  0.00     0.277 HD
HETATM   43  C   UNL     1      56.803 -22.699 -11.939  1.00  0.00     0.037 C 
ENDBRANCH  33  36
ENDBRANCH  28  30
ENDBRANCH  24  28
ENDBRANCH  12  16
ENDBRANCH   4  10
ENDBRANCH   2   4
TORSDOF 7
ENDMDL
MODEL 18
REMARK VINA RESULT:   -10.063      6.038      9.193
REMARK INTER + INTRA:         -14.655
REMARK INTER:                 -13.405
REMARK INTRA:                  -1.251
REMARK UNBOUND:                -0.475
REMARK  7 active torsions:
REMARK  status: ('A' for Active; 'I' for Inactive)
REMARK    1  A    between atoms: C_2  and  C_18 
REMARK    2  A    between atoms: C_3  and  N_35 
REMARK    3  A    between atoms: C_6  and  C_20 
REMARK    4  A    between atoms: C_10  and  C_11 
REMARK    5  A    between atoms: C_11  and  C_12 
REMARK    6  A    between atoms: C_11  and  N_30 
REMARK    7  A    between atoms: C_19  and  N_35 
ROOT
HETATM    1  C   UNL     1      51.017 -14.920  -2.307  1.00  0.00     0.061 C 
HETATM    2  C   UNL     1      51.292 -14.708  -3.803  1.00  0.00     0.151 C 
HETATM    3  N   UNL     1      50.892 -15.197  -1.205  1.00  0.00    -0.197 NA
ENDROOT
BRANCH   2   4
HETATM    4  C   UNL     1      52.415 -15.679  -4.250  1.00  0.00     0.124 C 
BRANCH   4   5
HETATM    5  C   UNL     1      53.225 -15.095  -5.444  1.00  0.00     0.011 C 
HETATM    6  C   UNL     1      54.457 -15.733  -5.566  1.00  0.00     0.007 C 
HETATM    7  C   UNL     1      55.540 -14.724  -4.944  1.00  0.00     0.000 C 
HETATM    8  C   UNL     1      54.846 -13.274  -4.968  1.00  0.00     0.000 C 
HETATM    9  C   UNL     1      53.481 -13.486  -5.095  1.00  0.00     0.007 C 
ENDBRANCH   4   5
BRANCH   4  10
HETATM   10  N   UNL     1      51.718 -16.943  -4.602  1.00  0.00    -0.297 N 
HETATM   11  C   UNL     1      51.410 -17.290  -5.838  1.00  0.00     0.125 A 
HETATM   12  C   UNL     1      50.783 -18.540  -5.771  1.00  0.00     0.026 A 
HETATM   13  C   UNL     1      50.791 -18.895  -4.400  1.00  0.00     0.122 A 
HETATM   14  N   UNL     1      51.375 -17.908  -3.723  1.00  0.00    -0.309 N 
ATOM     15  HN  UNL     1      51.535 -17.885  -2.716  1.00  0.00     0.186 HD
BRANCH  12  16
HETATM   16  C   UNL     1      50.317 -19.413  -6.942  1.00  0.00     0.076 A 
HETATM   17  C   UNL     1      49.262 -19.032  -7.849  1.00  0.00     0.038 A 
HETATM   18  C   UNL     1      48.321 -17.963  -7.963  1.00  0.00     0.034 A 
HETATM   19  C   UNL     1      48.997 -19.862  -8.907  1.00  0.00     0.133 A 
HETATM   20  C   UNL     1      47.522 -18.219  -9.089  1.00  0.00     0.090 A 
HETATM   21  N   UNL     1      47.926 -19.358  -9.632  1.00  0.00    -0.351 N 
ATOM     22  HN  UNL     1      47.514 -19.797 -10.456  1.00  0.00     0.166 HD
HETATM   23  N   UNL     1      49.746 -21.014  -9.067  1.00  0.00    -0.175 N 
HETATM   24  C   UNL     1      50.714 -21.297  -8.222  1.00  0.00     0.684 A 
ATOM     25  HN  UNL     1      49.548 -21.647  -9.842  1.00  0.00     0.186 HD
HETATM   26  N   UNL     1      51.029 -20.518  -7.195  1.00  0.00    -0.190 N 
ATOM     27  HN  UNL     1      51.818 -20.762  -6.596  1.00  0.00     0.184 HD
BRANCH  24  28
HETATM   28  N   UNL     1      51.465 -22.512  -8.485  1.00  0.00    -0.192 N 
ATOM     29  HN  UNL     1      51.031 -23.380  -8.171  1.00  0.00     0.184 HD
BRANCH  28  30
HETATM   30  C   UNL     1      52.760 -22.650  -9.141  1.00  0.00     0.049 A 
HETATM   31  C   UNL     1      53.301 -21.439  -9.639  1.00  0.00     0.030 A 
HETATM   32  C   UNL     1      54.527 -21.447 -10.261  1.00  0.00     0.010 A 
HETATM   33  C   UNL     1      55.261 -22.662 -10.419  1.00  0.00    -0.054 A 
HETATM   34  C   UNL     1      54.731 -23.868  -9.929  1.00  0.00     0.010 A 
HETATM   35  C   UNL     1      53.467 -23.859  -9.286  1.00  0.00     0.030 A 
BRANCH  33  36
HETATM   36  C   UNL     1      56.625 -22.533 -11.139  1.00  0.00     0.022 C 
HETATM   37  C   UNL     1      56.377 -21.219 -11.792  1.00  0.00     0.037 C 
HETATM   38  C   UNL     1      57.429 -20.813 -12.827  1.00  0.00     0.233 C 
HETATM   39  N   UNL     1      58.495 -21.819 -12.987  1.00  0.00    -0.075 N 
HETATM   40  C   UNL     1      57.917 -23.168 -13.237  1.00  0.00     0.233 C 
ATOM     41  HN2 UNL     1      59.132 -21.825 -12.190  1.00  0.00     0.277 HD
ATOM     42  HN1 UNL     1      59.160 -21.553 -13.714  1.00  0.00     0.277 HD
HETATM   43  C   UNL     1      57.110 -23.637 -12.036  1.00  0.00     0.037 C 
ENDBRANCH  33  36
ENDBRANCH  28  30
ENDBRANCH  24  28
ENDBRANCH  12  16
ENDBRANCH   4  10
ENDBRANCH   2   4
TORSDOF 7
ENDMDL
MODEL 19
REMARK VINA RESULT:   -10.001      2.347      6.324
REMARK INTER + INTRA:         -14.568
REMARK INTER:                 -13.931
REMARK INTRA:                  -0.637
REMARK UNBOUND:                -0.475
REMARK  7 active torsions:
REMARK  status: ('A' for Active; 'I' for Inactive)
REMARK    1  A    between atoms: C_2  and  C_18 
REMARK    2  A    between atoms: C_3  and  N_35 
REMARK    3  A    between atoms: C_6  and  C_20 
REMARK    4  A    between atoms: C_10  and  C_11 
REMARK    5  A    between atoms: C_11  and  C_12 
REMARK    6  A    between atoms: C_11  and  N_30 
REMARK    7  A    between atoms: C_19  and  N_35 
ROOT
HETATM    1  C   UNL     1      49.546 -18.476  -4.081  1.00  0.00     0.061 C 
HETATM    2  C   UNL     1      48.814 -18.085  -5.374  1.00  0.00     0.151 C 
HETATM    3  N   UNL     1      50.167 -18.859  -3.201  1.00  0.00    -0.197 NA
ENDROOT
BRANCH   2   4
HETATM    4  C   UNL     1      49.581 -18.674  -6.584  1.00  0.00     0.124 C 
BRANCH   4   5
HETATM    5  C   UNL     1      49.212 -17.933  -7.902  1.00  0.00     0.011 C 
HETATM    6  C   UNL     1      48.098 -17.118  -7.717  1.00  0.00     0.007 C 
HETATM    7  C   UNL     1      46.860 -17.910  -8.363  1.00  0.00     0.000 C 
HETATM    8  C   UNL     1      47.507 -18.973  -9.380  1.00  0.00     0.000 C 
HETATM    9  C   UNL     1      48.838 -19.116  -9.015  1.00  0.00     0.007 C 
ENDBRANCH   4   5
BRANCH   4  10
HETATM   10  N   UNL     1      49.207 -20.112  -6.618  1.00  0.00    -0.297 N 
HETATM   11  C   UNL     1      50.080 -21.094  -6.746  1.00  0.00     0.125 A 
HETATM   12  C   UNL     1      49.359 -22.294  -6.718  1.00  0.00     0.026 A 
HETATM   13  C   UNL     1      48.007 -21.918  -6.528  1.00  0.00     0.122 A 
HETATM   14  N   UNL     1      47.955 -20.589  -6.461  1.00  0.00    -0.309 N 
ATOM     15  HN  UNL     1      47.114 -20.029  -6.317  1.00  0.00     0.186 HD
BRANCH  12  16
HETATM   16  C   UNL     1      49.921 -23.720  -6.741  1.00  0.00     0.076 A 
HETATM   17  C   UNL     1      49.345 -24.815  -6.000  1.00  0.00     0.038 A 
HETATM   18  C   UNL     1      48.300 -24.990  -5.042  1.00  0.00     0.034 A 
HETATM   19  C   UNL     1      49.891 -26.061  -6.172  1.00  0.00     0.133 A 
HETATM   20  C   UNL     1      48.282 -26.345  -4.676  1.00  0.00     0.090 A 
HETATM   21  N   UNL     1      49.242 -26.967  -5.345  1.00  0.00    -0.351 N 
ATOM     22  HN  UNL     1      49.469 -27.958  -5.264  1.00  0.00     0.166 HD
HETATM   23  N   UNL     1      50.952 -26.220  -7.045  1.00  0.00    -0.175 N 
HETATM   24  C   UNL     1      51.418 -25.188  -7.715  1.00  0.00     0.684 A 
ATOM     25  HN  UNL     1      51.375 -27.140  -7.170  1.00  0.00     0.186 HD
HETATM   26  N   UNL     1      50.914 -23.965  -7.605  1.00  0.00    -0.190 N 
ATOM     27  HN  UNL     1      51.285 -23.210  -8.180  1.00  0.00     0.184 HD
BRANCH  24  28
HETATM   28  N   UNL     1      52.515 -25.455  -8.629  1.00  0.00    -0.192 N 
ATOM     29  HN  UNL     1      52.596 -26.418  -8.957  1.00  0.00     0.184 HD
BRANCH  28  30
HETATM   30  C   UNL     1      53.516 -24.524  -9.136  1.00  0.00     0.049 A 
HETATM   31  C   UNL     1      54.151 -24.937 -10.334  1.00  0.00     0.030 A 
HETATM   32  C   UNL     1      55.100 -24.129 -10.912  1.00  0.00     0.010 A 
HETATM   33  C   UNL     1      55.461 -22.880 -10.320  1.00  0.00    -0.054 A 
HETATM   34  C   UNL     1      54.836 -22.464  -9.132  1.00  0.00     0.010 A 
HETATM   35  C   UNL     1      53.856 -23.297  -8.535  1.00  0.00     0.030 A 
BRANCH  33  36
HETATM   36  C   UNL     1      56.544 -22.069 -11.071  1.00  0.00     0.022 C 
HETATM   37  C   UNL     1      55.684 -20.923 -11.475  1.00  0.00     0.037 C 
HETATM   38  C   UNL     1      56.333 -19.960 -12.473  1.00  0.00     0.233 C 
HETATM   39  N   UNL     1      57.699 -20.364 -12.855  1.00  0.00    -0.075 N 
HETATM   40  C   UNL     1      57.726 -21.782 -13.307  1.00  0.00     0.233 C 
ATOM     41  HN2 UNL     1      58.366 -20.195 -12.102  1.00  0.00     0.277 HD
ATOM     42  HN1 UNL     1      58.095 -19.737 -13.555  1.00  0.00     0.277 HD
HETATM   43  C   UNL     1      57.344 -22.715 -12.167  1.00  0.00     0.037 C 
ENDBRANCH  33  36
ENDBRANCH  28  30
ENDBRANCH  24  28
ENDBRANCH  12  16
ENDBRANCH   4  10
ENDBRANCH   2   4
TORSDOF 7
ENDMDL
