MODEL 1
REMARK VINA RESULT:    -6.560      0.000      0.000
REMARK INTER + INTRA:          -9.212
REMARK INTER:                  -8.861
REMARK INTRA:                  -0.351
REMARK UNBOUND:                -0.351
REMARK  6 active torsions:
REMARK  status: ('A' for Active; 'I' for Inactive)
REMARK    1  A    between atoms: C_1  and  C_6 
REMARK    2  A    between atoms: C_1  and  C_2 
REMARK    3  A    between atoms: C_4  and  C_8 
REMARK    4  A    between atoms: C_5  and  C_6 
REMARK    5  A    between atoms: C_6  and  C_7 
REMARK    6  A    between atoms: C_7  and  C_8 
ROOT
HETATM    1  C   UNL     1      19.602 -24.945   6.165  1.00  0.00     0.094 C 
ENDROOT
BRANCH   1   2
HETATM    2  C   UNL     1      19.750 -24.466   4.686  1.00  0.00     0.015 C 
BRANCH   2   3
HETATM    3  C   UNL     1      20.385 -25.471   3.767  1.00  0.00    -0.004 C 
HETATM    4  C   UNL     1      19.297 -26.355   3.156  1.00  0.00     0.005 C 
ENDBRANCH   2   3
ENDBRANCH   1   2
BRANCH   1   5
HETATM    5  C   UNL     1      18.113 -24.620   6.525  1.00  0.00     0.177 C 
HETATM    6  O   UNL     1      17.308 -24.442   5.479  1.00  0.00    -0.648 OA
HETATM    7  O   UNL     1      17.666 -24.570   7.659  1.00  0.00    -0.648 OA
ENDBRANCH   1   5
BRANCH   1   8
HETATM    8  C   UNL     1      20.649 -24.298   7.080  1.00  0.00     0.106 C 
BRANCH   8   9
HETATM    9  C   UNL     1      21.195 -25.255   8.174  1.00  0.00     0.225 C 
HETATM   10  O   UNL     1      20.782 -26.402   8.185  1.00  0.00    -0.286 OA
BRANCH   9  11
HETATM   11  C   UNL     1      22.096 -24.682   9.053  1.00  0.00     0.246 C 
HETATM   12  O   UNL     1      23.159 -25.255   9.325  1.00  0.00    -0.642 OA
HETATM   13  O   UNL     1      21.851 -23.542   9.669  1.00  0.00    -0.642 OA
ENDBRANCH   9  11
ENDBRANCH   8   9
ENDBRANCH   1   8
TORSDOF 6
ENDMDL
MODEL 2
REMARK VINA RESULT:    -6.468      1.609      2.817
REMARK INTER + INTRA:          -9.087
REMARK INTER:                  -8.891
REMARK INTRA:                  -0.197
REMARK UNBOUND:                -0.351
REMARK  6 active torsions:
REMARK  status: ('A' for Active; 'I' for Inactive)
REMARK    1  A    between atoms: C_1  and  C_6 
REMARK    2  A    between atoms: C_1  and  C_2 
REMARK    3  A    between atoms: C_4  and  C_8 
REMARK    4  A    between atoms: C_5  and  C_6 
REMARK    5  A    between atoms: C_6  and  C_7 
REMARK    6  A    between atoms: C_7  and  C_8 
ROOT
HETATM    1  C   UNL     1      19.552 -24.543   6.573  1.00  0.00     0.094 C 
ENDROOT
BRANCH   1   2
HETATM    2  C   UNL     1      19.363 -25.871   7.372  1.00  0.00     0.015 C 
BRANCH   2   3
HETATM    3  C   UNL     1      18.680 -25.706   8.701  1.00  0.00    -0.004 C 
HETATM    4  C   UNL     1      17.440 -24.828   8.526  1.00  0.00     0.005 C 
ENDBRANCH   2   3
ENDBRANCH   1   2
BRANCH   1   5
HETATM    5  C   UNL     1      19.400 -24.973   5.075  1.00  0.00     0.177 C 
HETATM    6  O   UNL     1      18.174 -25.355   4.720  1.00  0.00    -0.648 OA
HETATM    7  O   UNL     1      20.294 -24.935   4.246  1.00  0.00    -0.648 OA
ENDBRANCH   1   5
BRANCH   1   8
HETATM    8  C   UNL     1      20.876 -23.853   6.921  1.00  0.00     0.106 C 
BRANCH   8   9
HETATM    9  C   UNL     1      21.947 -24.817   7.497  1.00  0.00     0.225 C 
HETATM   10  O   UNL     1      22.401 -25.672   6.758  1.00  0.00    -0.286 OA
BRANCH   9  11
HETATM   11  C   UNL     1      22.260 -24.610   8.829  1.00  0.00     0.246 C 
HETATM   12  O   UNL     1      23.047 -25.366   9.414  1.00  0.00    -0.642 OA
HETATM   13  O   UNL     1      21.711 -23.646   9.541  1.00  0.00    -0.642 OA
ENDBRANCH   9  11
ENDBRANCH   8   9
ENDBRANCH   1   8
TORSDOF 6
ENDMDL
MODEL 3
REMARK VINA RESULT:    -6.396      2.552      4.723
REMARK INTER + INTRA:          -8.990
REMARK INTER:                  -8.714
REMARK INTRA:                  -0.275
REMARK UNBOUND:                -0.351
REMARK  6 active torsions:
REMARK  status: ('A' for Active; 'I' for Inactive)
REMARK    1  A    between atoms: C_1  and  C_6 
REMARK    2  A    between atoms: C_1  and  C_2 
REMARK    3  A    between atoms: C_4  and  C_8 
REMARK    4  A    between atoms: C_5  and  C_6 
REMARK    5  A    between atoms: C_6  and  C_7 
REMARK    6  A    between atoms: C_7  and  C_8 
ROOT
HETATM    1  C   UNL     1      19.457 -25.070   6.993  1.00  0.00     0.094 C 
ENDROOT
BRANCH   1   2
HETATM    2  C   UNL     1      19.579 -25.735   8.401  1.00  0.00     0.015 C 
BRANCH   2   3
HETATM    3  C   UNL     1      20.789 -25.311   9.185  1.00  0.00    -0.004 C 
HETATM    4  C   UNL     1      21.140 -23.864   8.832  1.00  0.00     0.005 C 
ENDBRANCH   2   3
ENDBRANCH   1   2
BRANCH   1   5
HETATM    5  C   UNL     1      17.916 -24.868   6.799  1.00  0.00     0.177 C 
HETATM    6  O   UNL     1      17.157 -25.348   7.785  1.00  0.00    -0.648 OA
HETATM    7  O   UNL     1      17.403 -24.283   5.860  1.00  0.00    -0.648 OA
ENDBRANCH   1   5
BRANCH   1   8
HETATM    8  C   UNL     1      20.145 -25.906   5.907  1.00  0.00     0.106 C 
BRANCH   8   9
HETATM    9  C   UNL     1      20.081 -25.263   4.495  1.00  0.00     0.225 C 
HETATM   10  O   UNL     1      20.511 -24.130   4.365  1.00  0.00    -0.286 OA
BRANCH   9  11
HETATM   11  C   UNL     1      19.509 -26.059   3.518  1.00  0.00     0.246 C 
HETATM   12  O   UNL     1      20.202 -26.533   2.609  1.00  0.00    -0.642 OA
HETATM   13  O   UNL     1      18.215 -26.306   3.480  1.00  0.00    -0.642 OA
ENDBRANCH   9  11
ENDBRANCH   8   9
ENDBRANCH   1   8
TORSDOF 6
ENDMDL
MODEL 4
REMARK VINA RESULT:    -6.376      1.636      4.746
REMARK INTER + INTRA:          -8.963
REMARK INTER:                  -8.693
REMARK INTRA:                  -0.270
REMARK UNBOUND:                -0.351
REMARK  6 active torsions:
REMARK  status: ('A' for Active; 'I' for Inactive)
REMARK    1  A    between atoms: C_1  and  C_6 
REMARK    2  A    between atoms: C_1  and  C_2 
REMARK    3  A    between atoms: C_4  and  C_8 
REMARK    4  A    between atoms: C_5  and  C_6 
REMARK    5  A    between atoms: C_6  and  C_7 
REMARK    6  A    between atoms: C_7  and  C_8 
ROOT
HETATM    1  C   UNL     1      21.133 -25.291   7.928  1.00  0.00     0.094 C 
ENDROOT
BRANCH   1   2
HETATM    2  C   UNL     1      19.781 -24.662   8.389  1.00  0.00     0.015 C 
BRANCH   2   3
HETATM    3  C   UNL     1      18.678 -25.657   8.621  1.00  0.00    -0.004 C 
HETATM    4  C   UNL     1      17.332 -24.931   8.615  1.00  0.00     0.005 C 
ENDBRANCH   2   3
ENDBRANCH   1   2
BRANCH   1   5
HETATM    5  C   UNL     1      22.177 -24.754   8.964  1.00  0.00     0.177 C 
HETATM    6  O   UNL     1      21.836 -23.616   9.568  1.00  0.00    -0.648 OA
HETATM    7  O   UNL     1      23.215 -25.320   9.264  1.00  0.00    -0.648 OA
ENDBRANCH   1   5
BRANCH   1   8
HETATM    8  C   UNL     1      21.443 -24.964   6.462  1.00  0.00     0.106 C 
BRANCH   8   9
HETATM    9  C   UNL     1      20.470 -25.635   5.456  1.00  0.00     0.225 C 
HETATM   10  O   UNL     1      20.702 -26.783   5.120  1.00  0.00    -0.286 OA
BRANCH   9  11
HETATM   11  C   UNL     1      19.432 -24.829   5.023  1.00  0.00     0.246 C 
HETATM   12  O   UNL     1      19.649 -23.664   4.665  1.00  0.00    -0.642 OA
HETATM   13  O   UNL     1      18.179 -25.237   5.016  1.00  0.00    -0.642 OA
ENDBRANCH   9  11
ENDBRANCH   8   9
ENDBRANCH   1   8
TORSDOF 6
ENDMDL
MODEL 5
REMARK VINA RESULT:    -6.313      1.220      1.725
REMARK INTER + INTRA:          -8.878
REMARK INTER:                  -8.610
REMARK INTRA:                  -0.268
REMARK UNBOUND:                -0.351
REMARK  6 active torsions:
REMARK  status: ('A' for Active; 'I' for Inactive)
REMARK    1  A    between atoms: C_1  and  C_6 
REMARK    2  A    between atoms: C_1  and  C_2 
REMARK    3  A    between atoms: C_4  and  C_8 
REMARK    4  A    between atoms: C_5  and  C_6 
REMARK    5  A    between atoms: C_6  and  C_7 
REMARK    6  A    between atoms: C_7  and  C_8 
ROOT
HETATM    1  C   UNL     1      18.707 -25.105   7.340  1.00  0.00     0.094 C 
ENDROOT
BRANCH   1   2
HETATM    2  C   UNL     1      18.370 -24.586   5.906  1.00  0.00     0.015 C 
BRANCH   2   3
HETATM    3  C   UNL     1      19.063 -25.328   4.797  1.00  0.00    -0.004 C 
HETATM    4  C   UNL     1      20.289 -24.533   4.346  1.00  0.00     0.005 C 
ENDBRANCH   2   3
ENDBRANCH   1   2
BRANCH   1   5
HETATM    5  C   UNL     1      17.371 -24.919   8.136  1.00  0.00     0.177 C 
HETATM    6  O   UNL     1      16.384 -25.739   7.778  1.00  0.00    -0.648 OA
HETATM    7  O   UNL     1      17.211 -24.132   9.054  1.00  0.00    -0.648 OA
ENDBRANCH   1   5
BRANCH   1   8
HETATM    8  C   UNL     1      19.924 -24.386   7.934  1.00  0.00     0.106 C 
BRANCH   8   9
HETATM    9  C   UNL     1      20.974 -25.349   8.550  1.00  0.00     0.225 C 
HETATM   10  O   UNL     1      20.794 -26.547   8.421  1.00  0.00    -0.286 OA
BRANCH   9  11
HETATM   11  C   UNL     1      22.016 -24.726   9.214  1.00  0.00     0.246 C 
HETATM   12  O   UNL     1      21.884 -23.575   9.650  1.00  0.00    -0.642 OA
HETATM   13  O   UNL     1      23.194 -25.298   9.370  1.00  0.00    -0.642 OA
ENDBRANCH   9  11
ENDBRANCH   8   9
ENDBRANCH   1   8
TORSDOF 6
ENDMDL
MODEL 6
REMARK VINA RESULT:    -6.174      2.234      4.542
REMARK INTER + INTRA:          -8.690
REMARK INTER:                  -8.347
REMARK INTRA:                  -0.342
REMARK UNBOUND:                -0.351
REMARK  6 active torsions:
REMARK  status: ('A' for Active; 'I' for Inactive)
REMARK    1  A    between atoms: C_1  and  C_6 
REMARK    2  A    between atoms: C_1  and  C_2 
REMARK    3  A    between atoms: C_4  and  C_8 
REMARK    4  A    between atoms: C_5  and  C_6 
REMARK    5  A    between atoms: C_6  and  C_7 
REMARK    6  A    between atoms: C_7  and  C_8 
ROOT
HETATM    1  C   UNL     1      19.320 -25.113   7.823  1.00  0.00     0.094 C 
ENDROOT
BRANCH   1   2
HETATM    2  C   UNL     1      19.737 -25.646   9.231  1.00  0.00     0.015 C 
BRANCH   2   3
HETATM    3  C   UNL     1      21.180 -25.412   9.582  1.00  0.00    -0.004 C 
HETATM    4  C   UNL     1      21.566 -23.981   9.205  1.00  0.00     0.005 C 
ENDBRANCH   2   3
ENDBRANCH   1   2
BRANCH   1   5
HETATM    5  C   UNL     1      17.781 -24.853   7.955  1.00  0.00     0.177 C 
HETATM    6  O   UNL     1      17.096 -24.944   6.815  1.00  0.00    -0.648 OA
HETATM    7  O   UNL     1      17.200 -24.628   9.003  1.00  0.00    -0.648 OA
ENDBRANCH   1   5
BRANCH   1   8
HETATM    8  C   UNL     1      19.723 -26.080   6.705  1.00  0.00     0.106 C 
BRANCH   8   9
HETATM    9  C   UNL     1      20.226 -25.369   5.420  1.00  0.00     0.225 C 
HETATM   10  O   UNL     1      21.090 -24.518   5.540  1.00  0.00    -0.286 OA
BRANCH   9  11
HETATM   11  C   UNL     1      19.607 -25.774   4.250  1.00  0.00     0.246 C 
HETATM   12  O   UNL     1      18.377 -25.711   4.137  1.00  0.00    -0.642 OA
HETATM   13  O   UNL     1      20.280 -26.281   3.236  1.00  0.00    -0.642 OA
ENDBRANCH   9  11
ENDBRANCH   8   9
ENDBRANCH   1   8
TORSDOF 6
ENDMDL
MODEL 7
REMARK VINA RESULT:    -6.115      1.944      4.711
REMARK INTER + INTRA:          -8.610
REMARK INTER:                  -8.408
REMARK INTRA:                  -0.202
REMARK UNBOUND:                -0.351
REMARK  6 active torsions:
REMARK  status: ('A' for Active; 'I' for Inactive)
REMARK    1  A    between atoms: C_1  and  C_6 
REMARK    2  A    between atoms: C_1  and  C_2 
REMARK    3  A    between atoms: C_4  and  C_8 
REMARK    4  A    between atoms: C_5  and  C_6 
REMARK    5  A    between atoms: C_6  and  C_7 
REMARK    6  A    between atoms: C_7  and  C_8 
ROOT
HETATM    1  C   UNL     1      20.801 -25.289   7.357  1.00  0.00     0.094 C 
ENDROOT
BRANCH   1   2
HETATM    2  C   UNL     1      19.680 -26.085   8.097  1.00  0.00     0.015 C 
BRANCH   2   3
HETATM    3  C   UNL     1      18.800 -25.244   8.980  1.00  0.00    -0.004 C 
HETATM    4  C   UNL     1      17.367 -25.280   8.446  1.00  0.00     0.005 C 
ENDBRANCH   2   3
ENDBRANCH   1   2
BRANCH   1   5
HETATM    5  C   UNL     1      21.649 -24.659   8.513  1.00  0.00     0.177 C 
HETATM    6  O   UNL     1      21.558 -23.334   8.619  1.00  0.00    -0.648 OA
HETATM    7  O   UNL     1      22.319 -25.294   9.310  1.00  0.00    -0.648 OA
ENDBRANCH   1   5
BRANCH   1   8
HETATM    8  C   UNL     1      20.220 -24.285   6.355  1.00  0.00     0.106 C 
BRANCH   8   9
HETATM    9  C   UNL     1      19.351 -24.942   5.249  1.00  0.00     0.225 C 
HETATM   10  O   UNL     1      18.145 -24.775   5.298  1.00  0.00    -0.286 OA
BRANCH   9  11
HETATM   11  C   UNL     1      20.056 -25.684   4.318  1.00  0.00     0.246 C 
HETATM   12  O   UNL     1      20.401 -26.845   4.571  1.00  0.00    -0.642 OA
HETATM   13  O   UNL     1      20.431 -25.184   3.157  1.00  0.00    -0.642 OA
ENDBRANCH   9  11
ENDBRANCH   8   9
ENDBRANCH   1   8
TORSDOF 6
ENDMDL
MODEL 8
REMARK VINA RESULT:    -6.021      2.110      4.978
REMARK INTER + INTRA:          -8.483
REMARK INTER:                  -8.431
REMARK INTRA:                  -0.052
REMARK UNBOUND:                -0.351
REMARK  6 active torsions:
REMARK  status: ('A' for Active; 'I' for Inactive)
REMARK    1  A    between atoms: C_1  and  C_6 
REMARK    2  A    between atoms: C_1  and  C_2 
REMARK    3  A    between atoms: C_4  and  C_8 
REMARK    4  A    between atoms: C_5  and  C_6 
REMARK    5  A    between atoms: C_6  and  C_7 
REMARK    6  A    between atoms: C_7  and  C_8 
ROOT
HETATM    1  C   UNL     1      20.924 -25.659   7.214  1.00  0.00     0.094 C 
ENDROOT
BRANCH   1   2
HETATM    2  C   UNL     1      19.423 -25.254   7.361  1.00  0.00     0.015 C 
BRANCH   2   3
HETATM    3  C   UNL     1      18.867 -25.418   8.747  1.00  0.00    -0.004 C 
HETATM    4  C   UNL     1      17.417 -24.931   8.771  1.00  0.00     0.005 C 
ENDBRANCH   2   3
ENDBRANCH   1   2
BRANCH   1   5
HETATM    5  C   UNL     1      21.693 -24.583   8.054  1.00  0.00     0.177 C 
HETATM    6  O   UNL     1      22.506 -25.076   8.989  1.00  0.00    -0.648 OA
HETATM    7  O   UNL     1      21.624 -23.379   7.874  1.00  0.00    -0.648 OA
ENDBRANCH   1   5
BRANCH   1   8
HETATM    8  C   UNL     1      21.346 -25.759   5.744  1.00  0.00     0.106 C 
BRANCH   8   9
HETATM    9  C   UNL     1      20.383 -25.030   4.770  1.00  0.00     0.225 C 
HETATM   10  O   UNL     1      20.387 -23.811   4.771  1.00  0.00    -0.286 OA
BRANCH   9  11
HETATM   11  C   UNL     1      19.589 -25.864   4.002  1.00  0.00     0.246 C 
HETATM   12  O   UNL     1      18.355 -25.811   4.090  1.00  0.00    -0.642 OA
HETATM   13  O   UNL     1      20.097 -26.770   3.191  1.00  0.00    -0.642 OA
ENDBRANCH   9  11
ENDBRANCH   8   9
ENDBRANCH   1   8
TORSDOF 6
ENDMDL
MODEL 9
REMARK VINA RESULT:    -5.829      1.234      4.090
REMARK INTER + INTRA:          -8.224
REMARK INTER:                  -8.035
REMARK INTRA:                  -0.189
REMARK UNBOUND:                -0.351
REMARK  6 active torsions:
REMARK  status: ('A' for Active; 'I' for Inactive)
REMARK    1  A    between atoms: C_1  and  C_6 
REMARK    2  A    between atoms: C_1  and  C_2 
REMARK    3  A    between atoms: C_4  and  C_8 
REMARK    4  A    between atoms: C_5  and  C_6 
REMARK    5  A    between atoms: C_6  and  C_7 
REMARK    6  A    between atoms: C_7  and  C_8 
ROOT
HETATM    1  C   UNL     1      20.346 -24.481   7.176  1.00  0.00     0.094 C 
ENDROOT
BRANCH   1   2
HETATM    2  C   UNL     1      21.207 -24.643   5.883  1.00  0.00     0.015 C 
BRANCH   2   3
HETATM    3  C   UNL     1      20.525 -24.194   4.621  1.00  0.00    -0.004 C 
HETATM    4  C   UNL     1      20.090 -25.420   3.818  1.00  0.00     0.005 C 
ENDBRANCH   2   3
ENDBRANCH   1   2
BRANCH   1   5
HETATM    5  C   UNL     1      21.396 -24.487   8.338  1.00  0.00     0.177 C 
HETATM    6  O   UNL     1      21.421 -23.380   9.079  1.00  0.00    -0.648 OA
HETATM    7  O   UNL     1      22.124 -25.426   8.613  1.00  0.00    -0.648 OA
ENDBRANCH   1   5
BRANCH   1   8
HETATM    8  C   UNL     1      19.260 -25.558   7.276  1.00  0.00     0.106 C 
BRANCH   8   9
HETATM    9  C   UNL     1      17.824 -25.017   7.040  1.00  0.00     0.225 C 
HETATM   10  O   UNL     1      17.568 -24.538   5.949  1.00  0.00    -0.286 OA
BRANCH   9  11
HETATM   11  C   UNL     1      16.976 -25.119   8.129  1.00  0.00     0.246 C 
HETATM   12  O   UNL     1      17.254 -24.557   9.195  1.00  0.00    -0.642 OA
HETATM   13  O   UNL     1      15.876 -25.846   8.099  1.00  0.00    -0.642 OA
ENDBRANCH   9  11
ENDBRANCH   8   9
ENDBRANCH   1   8
TORSDOF 6
ENDMDL
MODEL 10
REMARK VINA RESULT:    -5.768      1.959      3.084
REMARK INTER + INTRA:          -8.142
REMARK INTER:                  -7.823
REMARK INTRA:                  -0.319
REMARK UNBOUND:                -0.351
REMARK  6 active torsions:
REMARK  status: ('A' for Active; 'I' for Inactive)
REMARK    1  A    between atoms: C_1  and  C_6 
REMARK    2  A    between atoms: C_1  and  C_2 
REMARK    3  A    between atoms: C_4  and  C_8 
REMARK    4  A    between atoms: C_5  and  C_6 
REMARK    5  A    between atoms: C_6  and  C_7 
REMARK    6  A    between atoms: C_7  and  C_8 
ROOT
HETATM    1  C   UNL     1      20.036 -24.932   6.997  1.00  0.00     0.094 C 
ENDROOT
BRANCH   1   2
HETATM    2  C   UNL     1      18.510 -24.627   6.860  1.00  0.00     0.015 C 
BRANCH   2   3
HETATM    3  C   UNL     1      17.628 -25.448   7.758  1.00  0.00    -0.004 C 
HETATM    4  C   UNL     1      17.247 -24.621   8.987  1.00  0.00     0.005 C 
ENDBRANCH   2   3
ENDBRANCH   1   2
BRANCH   1   5
HETATM    5  C   UNL     1      20.514 -25.156   5.523  1.00  0.00     0.177 C 
HETATM    6  O   UNL     1      20.773 -26.423   5.202  1.00  0.00    -0.648 OA
HETATM    7  O   UNL     1      20.613 -24.278   4.682  1.00  0.00    -0.648 OA
ENDBRANCH   1   5
BRANCH   1   8
HETATM    8  C   UNL     1      20.299 -26.103   7.951  1.00  0.00     0.106 C 
BRANCH   8   9
HETATM    9  C   UNL     1      20.839 -25.665   9.339  1.00  0.00     0.225 C 
HETATM   10  O   UNL     1      20.256 -26.067  10.330  1.00  0.00    -0.286 OA
BRANCH   9  11
HETATM   11  C   UNL     1      21.939 -24.826   9.297  1.00  0.00     0.246 C 
HETATM   12  O   UNL     1      23.059 -25.273   9.018  1.00  0.00    -0.642 OA
HETATM   13  O   UNL     1      21.859 -23.544   9.594  1.00  0.00    -0.642 OA
ENDBRANCH   9  11
ENDBRANCH   8   9
ENDBRANCH   1   8
TORSDOF 6
ENDMDL
MODEL 11
REMARK VINA RESULT:    -5.715      2.162      4.043
REMARK INTER + INTRA:          -8.070
REMARK INTER:                  -7.739
REMARK INTRA:                  -0.332
REMARK UNBOUND:                -0.351
REMARK  6 active torsions:
REMARK  status: ('A' for Active; 'I' for Inactive)
REMARK    1  A    between atoms: C_1  and  C_6 
REMARK    2  A    between atoms: C_1  and  C_2 
REMARK    3  A    between atoms: C_4  and  C_8 
REMARK    4  A    between atoms: C_5  and  C_6 
REMARK    5  A    between atoms: C_6  and  C_7 
REMARK    6  A    between atoms: C_7  and  C_8 
ROOT
HETATM    1  C   UNL     1      19.835 -25.464   5.593  1.00  0.00     0.094 C 
ENDROOT
BRANCH   1   2
HETATM    2  C   UNL     1      21.125 -24.584   5.602  1.00  0.00     0.015 C 
BRANCH   2   3
HETATM    3  C   UNL     1      21.306 -23.760   6.846  1.00  0.00    -0.004 C 
HETATM    4  C   UNL     1      22.036 -24.592   7.902  1.00  0.00     0.005 C 
ENDBRANCH   2   3
ENDBRANCH   1   2
BRANCH   1   5
HETATM    5  C   UNL     1      19.530 -25.678   4.072  1.00  0.00     0.177 C 
HETATM    6  O   UNL     1      20.505 -25.303   3.244  1.00  0.00    -0.648 OA
HETATM    7  O   UNL     1      18.513 -26.187   3.630  1.00  0.00    -0.648 OA
ENDBRANCH   1   5
BRANCH   1   8
HETATM    8  C   UNL     1      18.700 -24.821   6.399  1.00  0.00     0.106 C 
BRANCH   8   9
HETATM    9  C   UNL     1      18.322 -25.613   7.680  1.00  0.00     0.225 C 
HETATM   10  O   UNL     1      19.078 -26.494   8.049  1.00  0.00    -0.286 OA
BRANCH   9  11
HETATM   11  C   UNL     1      17.125 -25.238   8.265  1.00  0.00     0.246 C 
HETATM   12  O   UNL     1      16.072 -25.813   7.964  1.00  0.00    -0.642 OA
HETATM   13  O   UNL     1      17.042 -24.236   9.119  1.00  0.00    -0.642 OA
ENDBRANCH   9  11
ENDBRANCH   8   9
ENDBRANCH   1   8
TORSDOF 6
ENDMDL
MODEL 12
REMARK VINA RESULT:    -5.660     12.298     13.208
REMARK INTER + INTRA:          -7.996
REMARK INTER:                  -7.773
REMARK INTRA:                  -0.222
REMARK UNBOUND:                -0.351
REMARK  6 active torsions:
REMARK  status: ('A' for Active; 'I' for Inactive)
REMARK    1  A    between atoms: C_1  and  C_6 
REMARK    2  A    between atoms: C_1  and  C_2 
REMARK    3  A    between atoms: C_4  and  C_8 
REMARK    4  A    between atoms: C_5  and  C_6 
REMARK    5  A    between atoms: C_6  and  C_7 
REMARK    6  A    between atoms: C_7  and  C_8 
ROOT
HETATM    1  C   UNL     1      29.480 -25.688  -1.676  1.00  0.00     0.094 C 
ENDROOT
BRANCH   1   2
HETATM    2  C   UNL     1      29.403 -24.606  -0.553  1.00  0.00     0.015 C 
BRANCH   2   3
HETATM    3  C   UNL     1      30.688 -24.397   0.199  1.00  0.00    -0.004 C 
HETATM    4  C   UNL     1      30.627 -23.061   0.942  1.00  0.00     0.005 C 
ENDBRANCH   2   3
ENDBRANCH   1   2
BRANCH   1   5
HETATM    5  C   UNL     1      29.014 -24.933  -2.966  1.00  0.00     0.177 C 
HETATM    6  O   UNL     1      29.952 -24.787  -3.902  1.00  0.00    -0.648 OA
HETATM    7  O   UNL     1      27.880 -24.533  -3.167  1.00  0.00    -0.648 OA
ENDBRANCH   1   5
BRANCH   1   8
HETATM    8  C   UNL     1      28.662 -26.936  -1.321  1.00  0.00     0.106 C 
BRANCH   8   9
HETATM    9  C   UNL     1      29.411 -28.268  -1.596  1.00  0.00     0.225 C 
HETATM   10  O   UNL     1      30.486 -28.210  -2.166  1.00  0.00    -0.286 OA
BRANCH   9  11
HETATM   11  C   UNL     1      28.748 -29.407  -1.172  1.00  0.00     0.246 C 
HETATM   12  O   UNL     1      29.167 -30.053  -0.203  1.00  0.00    -0.642 OA
HETATM   13  O   UNL     1      27.686 -29.877  -1.797  1.00  0.00    -0.642 OA
ENDBRANCH   9  11
ENDBRANCH   8   9
ENDBRANCH   1   8
TORSDOF 6
ENDMDL
MODEL 13
REMARK VINA RESULT:    -5.472      1.934      4.864
REMARK INTER + INTRA:          -7.742
REMARK INTER:                  -7.722
REMARK INTRA:                  -0.019
REMARK UNBOUND:                -0.351
REMARK  6 active torsions:
REMARK  status: ('A' for Active; 'I' for Inactive)
REMARK    1  A    between atoms: C_1  and  C_6 
REMARK    2  A    between atoms: C_1  and  C_2 
REMARK    3  A    between atoms: C_4  and  C_8 
REMARK    4  A    between atoms: C_5  and  C_6 
REMARK    5  A    between atoms: C_6  and  C_7 
REMARK    6  A    between atoms: C_7  and  C_8 
ROOT
HETATM    1  C   UNL     1      20.039 -24.403   7.263  1.00  0.00     0.094 C 
ENDROOT
BRANCH   1   2
HETATM    2  C   UNL     1      21.437 -24.584   7.935  1.00  0.00     0.015 C 
BRANCH   2   3
HETATM    3  C   UNL     1      21.492 -24.170   9.379  1.00  0.00    -0.004 C 
HETATM    4  C   UNL     1      21.648 -25.414  10.256  1.00  0.00     0.005 C 
ENDBRANCH   2   3
ENDBRANCH   1   2
BRANCH   1   5
HETATM    5  C   UNL     1      19.172 -25.558   7.868  1.00  0.00     0.177 C 
HETATM    6  O   UNL     1      19.677 -26.781   7.712  1.00  0.00    -0.648 OA
HETATM    7  O   UNL     1      18.131 -25.398   8.484  1.00  0.00    -0.648 OA
ENDBRANCH   1   5
BRANCH   1   8
HETATM    8  C   UNL     1      20.139 -24.397   5.733  1.00  0.00     0.106 C 
BRANCH   8   9
HETATM    9  C   UNL     1      18.866 -24.933   5.025  1.00  0.00     0.225 C 
HETATM   10  O   UNL     1      17.786 -24.503   5.392  1.00  0.00    -0.286 OA
BRANCH   9  11
HETATM   11  C   UNL     1      19.099 -25.882   4.045  1.00  0.00     0.246 C 
HETATM   12  O   UNL     1      18.175 -26.284   3.327  1.00  0.00    -0.642 OA
HETATM   13  O   UNL     1      20.285 -26.428   3.862  1.00  0.00    -0.642 OA
ENDBRANCH   9  11
ENDBRANCH   8   9
ENDBRANCH   1   8
TORSDOF 6
ENDMDL
MODEL 14
REMARK VINA RESULT:    -5.353      9.326     10.839
REMARK INTER + INTRA:          -7.581
REMARK INTER:                  -7.514
REMARK INTRA:                  -0.067
REMARK UNBOUND:                -0.351
REMARK  6 active torsions:
REMARK  status: ('A' for Active; 'I' for Inactive)
REMARK    1  A    between atoms: C_1  and  C_6 
REMARK    2  A    between atoms: C_1  and  C_2 
REMARK    3  A    between atoms: C_4  and  C_8 
REMARK    4  A    between atoms: C_5  and  C_6 
REMARK    5  A    between atoms: C_6  and  C_7 
REMARK    6  A    between atoms: C_7  and  C_8 
ROOT
HETATM    1  C   UNL     1      23.712 -18.556  -0.825  1.00  0.00     0.094 C 
ENDROOT
BRANCH   1   2
HETATM    2  C   UNL     1      25.110 -18.361  -0.156  1.00  0.00     0.015 C 
BRANCH   2   3
HETATM    3  C   UNL     1      26.058 -17.494  -0.937  1.00  0.00    -0.004 C 
HETATM    4  C   UNL     1      27.254 -17.132  -0.055  1.00  0.00     0.005 C 
ENDBRANCH   2   3
ENDBRANCH   1   2
BRANCH   1   5
HETATM    5  C   UNL     1      23.267 -17.104  -1.209  1.00  0.00     0.177 C 
HETATM    6  O   UNL     1      23.326 -16.217  -0.216  1.00  0.00    -0.648 OA
HETATM    7  O   UNL     1      22.930 -16.752  -2.327  1.00  0.00    -0.648 OA
ENDBRANCH   1   5
BRANCH   1   8
HETATM    8  C   UNL     1      22.743 -19.313   0.090  1.00  0.00     0.106 C 
BRANCH   8   9
HETATM    9  C   UNL     1      21.917 -20.403  -0.645  1.00  0.00     0.225 C 
HETATM   10  O   UNL     1      21.508 -20.150  -1.764  1.00  0.00    -0.286 OA
BRANCH   9  11
HETATM   11  C   UNL     1      21.712 -21.565   0.079  1.00  0.00     0.246 C 
HETATM   12  O   UNL     1      21.715 -22.665  -0.487  1.00  0.00    -0.642 OA
HETATM   13  O   UNL     1      21.461 -21.553   1.373  1.00  0.00    -0.642 OA
ENDBRANCH   9  11
ENDBRANCH   8   9
ENDBRANCH   1   8
TORSDOF 6
ENDMDL
MODEL 15
REMARK VINA RESULT:    -5.334      1.442      2.101
REMARK INTER + INTRA:          -7.555
REMARK INTER:                  -7.157
REMARK INTRA:                  -0.398
REMARK UNBOUND:                -0.351
REMARK  6 active torsions:
REMARK  status: ('A' for Active; 'I' for Inactive)
REMARK    1  A    between atoms: C_1  and  C_6 
REMARK    2  A    between atoms: C_1  and  C_2 
REMARK    3  A    between atoms: C_4  and  C_8 
REMARK    4  A    between atoms: C_5  and  C_6 
REMARK    5  A    between atoms: C_6  and  C_7 
REMARK    6  A    between atoms: C_7  and  C_8 
ROOT
HETATM    1  C   UNL     1      19.915 -25.732   5.273  1.00  0.00     0.094 C 
ENDROOT
BRANCH   1   2
HETATM    2  C   UNL     1      20.144 -26.014   3.754  1.00  0.00     0.015 C 
BRANCH   2   3
HETATM    3  C   UNL     1      19.022 -26.756   3.083  1.00  0.00    -0.004 C 
HETATM    4  C   UNL     1      19.058 -26.475   1.580  1.00  0.00     0.005 C 
ENDBRANCH   2   3
ENDBRANCH   1   2
BRANCH   1   5
HETATM    5  C   UNL     1      18.867 -24.568   5.291  1.00  0.00     0.177 C 
HETATM    6  O   UNL     1      19.294 -23.419   4.767  1.00  0.00    -0.648 OA
HETATM    7  O   UNL     1      17.722 -24.668   5.698  1.00  0.00    -0.648 OA
ENDBRANCH   1   5
BRANCH   1   8
HETATM    8  C   UNL     1      21.231 -25.434   6.001  1.00  0.00     0.106 C 
BRANCH   8   9
HETATM    9  C   UNL     1      21.038 -24.712   7.362  1.00  0.00     0.225 C 
HETATM   10  O   UNL     1      21.505 -23.593   7.484  1.00  0.00    -0.286 OA
BRANCH   9  11
HETATM   11  C   UNL     1      20.359 -25.445   8.319  1.00  0.00     0.246 C 
HETATM   12  O   UNL     1      20.832 -26.503   8.752  1.00  0.00    -0.642 OA
HETATM   13  O   UNL     1      19.175 -25.084   8.774  1.00  0.00    -0.642 OA
ENDBRANCH   9  11
ENDBRANCH   8   9
ENDBRANCH   1   8
TORSDOF 6
ENDMDL
MODEL 16
REMARK VINA RESULT:    -5.307      2.463      4.402
REMARK INTER + INTRA:          -7.519
REMARK INTER:                  -7.458
REMARK INTRA:                  -0.061
REMARK UNBOUND:                -0.351
REMARK  6 active torsions:
REMARK  status: ('A' for Active; 'I' for Inactive)
REMARK    1  A    between atoms: C_1  and  C_6 
REMARK    2  A    between atoms: C_1  and  C_2 
REMARK    3  A    between atoms: C_4  and  C_8 
REMARK    4  A    between atoms: C_5  and  C_6 
REMARK    5  A    between atoms: C_6  and  C_7 
REMARK    6  A    between atoms: C_7  and  C_8 
ROOT
HETATM    1  C   UNL     1      20.305 -25.295   6.624  1.00  0.00     0.094 C 
ENDROOT
BRANCH   1   2
HETATM    2  C   UNL     1      21.766 -24.919   7.026  1.00  0.00     0.015 C 
BRANCH   2   3
HETATM    3  C   UNL     1      21.990 -24.788   8.507  1.00  0.00    -0.004 C 
HETATM    4  C   UNL     1      20.970 -25.652   9.251  1.00  0.00     0.005 C 
ENDBRANCH   2   3
ENDBRANCH   1   2
BRANCH   1   5
HETATM    5  C   UNL     1      20.415 -25.696   5.114  1.00  0.00     0.177 C 
HETATM    6  O   UNL     1      20.531 -24.673   4.268  1.00  0.00    -0.648 OA
HETATM    7  O   UNL     1      20.446 -26.842   4.699  1.00  0.00    -0.648 OA
ENDBRANCH   1   5
BRANCH   1   8
HETATM    8  C   UNL     1      19.321 -24.157   6.924  1.00  0.00     0.106 C 
BRANCH   8   9
HETATM    9  C   UNL     1      17.833 -24.559   6.744  1.00  0.00     0.225 C 
HETATM   10  O   UNL     1      17.354 -24.484   5.626  1.00  0.00    -0.286 OA
BRANCH   9  11
HETATM   11  C   UNL     1      17.189 -24.948   7.906  1.00  0.00     0.246 C 
HETATM   12  O   UNL     1      16.232 -25.731   7.862  1.00  0.00    -0.642 OA
HETATM   13  O   UNL     1      17.527 -24.475   9.090  1.00  0.00    -0.642 OA
ENDBRANCH   9  11
ENDBRANCH   8   9
ENDBRANCH   1   8
TORSDOF 6
ENDMDL
MODEL 17
REMARK VINA RESULT:    -5.286      1.752      2.847
REMARK INTER + INTRA:          -7.491
REMARK INTER:                  -7.341
REMARK INTRA:                  -0.150
REMARK UNBOUND:                -0.351
REMARK  6 active torsions:
REMARK  status: ('A' for Active; 'I' for Inactive)
REMARK    1  A    between atoms: C_1  and  C_6 
REMARK    2  A    between atoms: C_1  and  C_2 
REMARK    3  A    between atoms: C_4  and  C_8 
REMARK    4  A    between atoms: C_5  and  C_6 
REMARK    5  A    between atoms: C_6  and  C_7 
REMARK    6  A    between atoms: C_7  and  C_8 
ROOT
HETATM    1  C   UNL     1      19.810 -24.248   6.104  1.00  0.00     0.094 C 
ENDROOT
BRANCH   1   2
HETATM    2  C   UNL     1      20.168 -24.568   4.618  1.00  0.00     0.015 C 
BRANCH   2   3
HETATM    3  C   UNL     1      19.550 -25.832   4.088  1.00  0.00    -0.004 C 
HETATM    4  C   UNL     1      19.992 -26.041   2.638  1.00  0.00     0.005 C 
ENDBRANCH   2   3
ENDBRANCH   1   2
BRANCH   1   5
HETATM    5  C   UNL     1      21.198 -24.198   6.828  1.00  0.00     0.177 C 
HETATM    6  O   UNL     1      22.046 -25.169   6.487  1.00  0.00    -0.648 OA
HETATM    7  O   UNL     1      21.542 -23.333   7.615  1.00  0.00    -0.648 OA
ENDBRANCH   1   5
BRANCH   1   8
HETATM    8  C   UNL     1      18.812 -25.259   6.680  1.00  0.00     0.106 C 
BRANCH   8   9
HETATM    9  C   UNL     1      18.773 -25.278   8.232  1.00  0.00     0.225 C 
HETATM   10  O   UNL     1      17.962 -24.559   8.790  1.00  0.00    -0.286 OA
BRANCH   9  11
HETATM   11  C   UNL     1      19.701 -26.113   8.828  1.00  0.00     0.246 C 
HETATM   12  O   UNL     1      19.931 -27.234   8.357  1.00  0.00    -0.642 OA
HETATM   13  O   UNL     1      20.339 -25.782   9.934  1.00  0.00    -0.642 OA
ENDBRANCH   9  11
ENDBRANCH   8   9
ENDBRANCH   1   8
TORSDOF 6
ENDMDL
MODEL 18
REMARK VINA RESULT:    -5.071      2.328      5.141
REMARK INTER + INTRA:          -7.200
REMARK INTER:                  -6.976
REMARK INTRA:                  -0.223
REMARK UNBOUND:                -0.351
REMARK  6 active torsions:
REMARK  status: ('A' for Active; 'I' for Inactive)
REMARK    1  A    between atoms: C_1  and  C_6 
REMARK    2  A    between atoms: C_1  and  C_2 
REMARK    3  A    between atoms: C_4  and  C_8 
REMARK    4  A    between atoms: C_5  and  C_6 
REMARK    5  A    between atoms: C_6  and  C_7 
REMARK    6  A    between atoms: C_7  and  C_8 
ROOT
HETATM    1  C   UNL     1      19.777 -25.188   5.427  1.00  0.00     0.094 C 
ENDROOT
BRANCH   1   2
HETATM    2  C   UNL     1      20.958 -25.156   6.448  1.00  0.00     0.015 C 
BRANCH   2   3
HETATM    3  C   UNL     1      21.192 -23.817   7.088  1.00  0.00    -0.004 C 
HETATM    4  C   UNL     1      21.132 -23.966   8.609  1.00  0.00     0.005 C 
ENDBRANCH   2   3
ENDBRANCH   1   2
BRANCH   1   5
HETATM    5  C   UNL     1      18.495 -25.115   6.323  1.00  0.00     0.177 C 
HETATM    6  O   UNL     1      17.515 -24.351   5.841  1.00  0.00    -0.648 OA
HETATM    7  O   UNL     1      18.339 -25.728   7.366  1.00  0.00    -0.648 OA
ENDBRANCH   1   5
BRANCH   1   8
HETATM    8  C   UNL     1      19.856 -26.409   4.502  1.00  0.00     0.106 C 
BRANCH   8   9
HETATM    9  C   UNL     1      18.927 -26.311   3.263  1.00  0.00     0.225 C 
HETATM   10  O   UNL     1      17.731 -26.470   3.433  1.00  0.00    -0.286 OA
BRANCH   9  11
HETATM   11  C   UNL     1      19.577 -26.069   2.065  1.00  0.00     0.246 C 
HETATM   12  O   UNL     1      19.075 -26.434   0.994  1.00  0.00    -0.642 OA
HETATM   13  O   UNL     1      20.761 -25.492   2.010  1.00  0.00    -0.642 OA
ENDBRANCH   9  11
ENDBRANCH   8   9
ENDBRANCH   1   8
TORSDOF 6
ENDMDL
MODEL 19
REMARK VINA RESULT:    -4.972     12.512     13.607
REMARK INTER + INTRA:          -7.066
REMARK INTER:                  -6.909
REMARK INTRA:                  -0.157
REMARK UNBOUND:                -0.351
REMARK  6 active torsions:
REMARK  status: ('A' for Active; 'I' for Inactive)
REMARK    1  A    between atoms: C_1  and  C_6 
REMARK    2  A    between atoms: C_1  and  C_2 
REMARK    3  A    between atoms: C_4  and  C_8 
REMARK    4  A    between atoms: C_5  and  C_6 
REMARK    5  A    between atoms: C_6  and  C_7 
REMARK    6  A    between atoms: C_7  and  C_8 
ROOT
HETATM    1  C   UNL     1      29.655 -26.064  -2.189  1.00  0.00     0.094 C 
ENDROOT
BRANCH   1   2
HETATM    2  C   UNL     1      30.963 -25.492  -1.555  1.00  0.00     0.015 C 
BRANCH   2   3
HETATM    3  C   UNL     1      32.176 -25.587  -2.437  1.00  0.00    -0.004 C 
HETATM    4  C   UNL     1      31.746 -25.478  -3.901  1.00  0.00     0.005 C 
ENDBRANCH   2   3
ENDBRANCH   1   2
BRANCH   1   5
HETATM    5  C   UNL     1      28.740 -24.808  -2.375  1.00  0.00     0.177 C 
HETATM    6  O   UNL     1      28.989 -23.802  -1.537  1.00  0.00    -0.648 OA
HETATM    7  O   UNL     1      27.883 -24.691  -3.236  1.00  0.00    -0.648 OA
ENDBRANCH   1   5
BRANCH   1   8
HETATM    8  C   UNL     1      29.053 -27.188  -1.337  1.00  0.00     0.106 C 
BRANCH   8   9
HETATM    9  C   UNL     1      29.604 -28.596  -1.687  1.00  0.00     0.225 C 
HETATM   10  O   UNL     1      30.667 -28.662  -2.278  1.00  0.00    -0.286 OA
BRANCH   9  11
HETATM   11  C   UNL     1      28.795 -29.651  -1.300  1.00  0.00     0.246 C 
HETATM   12  O   UNL     1      28.976 -30.215  -0.214  1.00  0.00    -0.642 OA
HETATM   13  O   UNL     1      27.841 -30.128  -2.076  1.00  0.00    -0.642 OA
ENDBRANCH   9  11
ENDBRANCH   8   9
ENDBRANCH   1   8
TORSDOF 6
ENDMDL
MODEL 20
REMARK VINA RESULT:    -4.836     10.689     12.155
REMARK INTER + INTRA:          -6.882
REMARK INTER:                  -6.550
REMARK INTRA:                  -0.333
REMARK UNBOUND:                -0.351
REMARK  6 active torsions:
REMARK  status: ('A' for Active; 'I' for Inactive)
REMARK    1  A    between atoms: C_1  and  C_6 
REMARK    2  A    between atoms: C_1  and  C_2 
REMARK    3  A    between atoms: C_4  and  C_8 
REMARK    4  A    between atoms: C_5  and  C_6 
REMARK    5  A    between atoms: C_6  and  C_7 
REMARK    6  A    between atoms: C_7  and  C_8 
ROOT
HETATM    1  C   UNL     1      23.886 -17.154  -2.164  1.00  0.00     0.094 C 
ENDROOT
BRANCH   1   2
HETATM    2  C   UNL     1      25.131 -16.732  -1.320  1.00  0.00     0.015 C 
BRANCH   2   3
HETATM    3  C   UNL     1      25.628 -17.788  -0.373  1.00  0.00    -0.004 C 
HETATM    4  C   UNL     1      27.153 -17.864  -0.455  1.00  0.00     0.005 C 
ENDBRANCH   2   3
ENDBRANCH   1   2
BRANCH   1   5
HETATM    5  C   UNL     1      23.440 -15.831  -2.873  1.00  0.00     0.177 C 
HETATM    6  O   UNL     1      24.058 -14.729  -2.448  1.00  0.00    -0.648 OA
HETATM    7  O   UNL     1      22.630 -15.767  -3.783  1.00  0.00    -0.648 OA
ENDBRANCH   1   5
BRANCH   1   8
HETATM    8  C   UNL     1      22.811 -17.821  -1.298  1.00  0.00     0.106 C 
BRANCH   8   9
HETATM    9  C   UNL     1      22.427 -19.248  -1.775  1.00  0.00     0.225 C 
HETATM   10  O   UNL     1      22.282 -19.429  -2.971  1.00  0.00    -0.286 OA
BRANCH   9  11
HETATM   11  C   UNL     1      22.266 -20.177  -0.763  1.00  0.00     0.246 C 
HETATM   12  O   UNL     1      21.915 -21.335  -1.023  1.00  0.00    -0.642 OA
HETATM   13  O   UNL     1      22.428 -19.869   0.509  1.00  0.00    -0.642 OA
ENDBRANCH   9  11
ENDBRANCH   8   9
ENDBRANCH   1   8
TORSDOF 6
ENDMDL
