MODEL 1
REMARK VINA RESULT:   -10.274      0.000      0.000
REMARK INTER + INTRA:         -12.680
REMARK INTER:                 -12.076
REMARK INTRA:                  -0.604
REMARK UNBOUND:                -0.604
REMARK  3 active torsions:
REMARK  status: ('A' for Active; 'I' for Inactive)
REMARK       I    between atoms: C_2  and  N_15 
REMARK    1  A    between atoms: C_2  and  C_3 
REMARK    2  A    between atoms: C_8  and  C_25 
REMARK    3  A    between atoms: N_18  and  C_20 
ROOT
HETATM    1  C   UNL     1     -14.034  -1.653  21.738  1.00  0.00     0.120 A 
HETATM    2  C   UNL     1     -13.762  -3.888  22.185  1.00  0.00     0.180 A 
HETATM    3  C   UNL     1     -15.415  -1.730  21.982  1.00  0.00     0.073 A 
HETATM    4  N   UNL     1     -13.227  -2.723  21.868  1.00  0.00    -0.360 N 
ATOM      5  HN  UNL     1     -12.221  -2.635  21.723  1.00  0.00     0.166 HD
HETATM    6  N   UNL     1     -15.094  -4.063  22.469  1.00  0.00    -0.350 N 
ATOM      7  HN  UNL     1     -15.456  -4.985  22.711  1.00  0.00     0.166 HD
HETATM    8  C   UNL     1     -15.937  -2.968  22.420  1.00  0.00     0.071 A 
ENDROOT
BRANCH   3   9
HETATM    9  N   UNL     1     -16.259  -0.612  21.775  1.00  0.00    -0.378 N 
HETATM   10  C   UNL     1     -16.897  -0.586  20.445  1.00  0.00     0.124 C 
HETATM   11  C   UNL     1     -18.107   0.361  20.450  1.00  0.00     0.034 C 
HETATM   12  C   UNL     1     -17.710   1.775  20.877  1.00  0.00     0.081 C 
HETATM   13  C   UNL     1     -17.014   1.680  22.246  1.00  0.00     0.034 C 
HETATM   14  C   UNL     1     -15.826   0.703  22.223  1.00  0.00     0.124 C 
BRANCH  12  15
HETATM   15  C   UNL     1     -18.927   2.665  20.988  1.00  0.00     0.224 C 
HETATM   16  N   UNL     1     -18.705   3.941  20.717  1.00  0.00    -0.346 N 
HETATM   17  C   UNL     1     -19.688   5.017  20.633  1.00  0.00     0.164 A 
HETATM   18  C   UNL     1     -17.566   4.711  20.099  1.00  0.00     0.164 A 
HETATM   19  C   UNL     1     -18.638   5.869  19.930  1.00  0.00     0.206 A 
HETATM   20  F   UNL     1     -18.856   6.050  18.600  1.00  0.00    -0.246 F 
HETATM   21  O   UNL     1     -20.014   2.267  21.409  1.00  0.00    -0.273 OA
ENDBRANCH  12  15
ENDBRANCH   3   9
BRANCH   8  22
HETATM   22  C   UNL     1     -17.325  -3.165  22.933  1.00  0.00    -0.007 A 
HETATM   23  C   UNL     1     -17.889  -2.224  23.817  1.00  0.00     0.017 A 
HETATM   24  C   UNL     1     -19.195  -2.414  24.222  1.00  0.00     0.043 A 
HETATM   25  C   UNL     1     -19.848  -3.557  23.891  1.00  0.00     0.116 A 
HETATM   26  C   UNL     1     -19.346  -4.493  23.071  1.00  0.00     0.043 A 
HETATM   27  F   UNL     1     -21.122  -3.732  24.358  1.00  0.00    -0.206 F 
HETATM   28  C   UNL     1     -18.023  -4.308  22.581  1.00  0.00     0.017 A 
ENDBRANCH   8  22
TORSDOF 3
ENDMDL
MODEL 2
REMARK VINA RESULT:    -8.529      1.199      1.282
REMARK INTER + INTRA:         -10.628
REMARK INTER:                 -10.347
REMARK INTRA:                  -0.282
REMARK UNBOUND:                -0.604
REMARK  3 active torsions:
REMARK  status: ('A' for Active; 'I' for Inactive)
REMARK       I    between atoms: C_2  and  N_15 
REMARK    1  A    between atoms: C_2  and  C_3 
REMARK    2  A    between atoms: C_8  and  C_25 
REMARK    3  A    between atoms: N_18  and  C_20 
ROOT
HETATM    1  C   UNL     1     -13.949  -1.737  21.856  1.00  0.00     0.120 A 
HETATM    2  C   UNL     1     -13.765  -3.998  22.206  1.00  0.00     0.180 A 
HETATM    3  C   UNL     1     -15.332  -1.772  22.097  1.00  0.00     0.073 A 
HETATM    4  N   UNL     1     -13.184  -2.842  21.939  1.00  0.00    -0.360 N 
ATOM      5  HN  UNL     1     -12.175  -2.787  21.799  1.00  0.00     0.166 HD
HETATM    6  N   UNL     1     -15.102  -4.133  22.482  1.00  0.00    -0.350 N 
ATOM      7  HN  UNL     1     -15.500  -5.051  22.683  1.00  0.00     0.166 HD
HETATM    8  C   UNL     1     -15.902  -3.006  22.481  1.00  0.00     0.071 A 
ENDROOT
BRANCH   3   9
HETATM    9  N   UNL     1     -16.133  -0.614  21.938  1.00  0.00    -0.378 N 
HETATM   10  C   UNL     1     -16.741  -0.489  20.600  1.00  0.00     0.124 C 
HETATM   11  C   UNL     1     -17.917   0.499  20.637  1.00  0.00     0.034 C 
HETATM   12  C   UNL     1     -17.480   1.872  21.152  1.00  0.00     0.081 C 
HETATM   13  C   UNL     1     -16.817   1.674  22.526  1.00  0.00     0.034 C 
HETATM   14  C   UNL     1     -15.664   0.657  22.470  1.00  0.00     0.124 C 
BRANCH  12  15
HETATM   15  C   UNL     1     -18.667   2.797  21.291  1.00  0.00     0.224 C 
HETATM   16  N   UNL     1     -19.193   3.199  20.146  1.00  0.00    -0.346 N 
HETATM   17  C   UNL     1     -20.397   3.999  19.951  1.00  0.00     0.164 A 
HETATM   18  C   UNL     1     -19.039   2.781  18.706  1.00  0.00     0.164 A 
HETATM   19  C   UNL     1     -20.389   3.585  18.484  1.00  0.00     0.206 A 
HETATM   20  F   UNL     1     -21.358   2.695  18.143  1.00  0.00    -0.246 F 
HETATM   21  O   UNL     1     -19.049   3.241  22.375  1.00  0.00    -0.273 OA
ENDBRANCH  12  15
ENDBRANCH   3   9
BRANCH   8  22
HETATM   22  C   UNL     1     -17.297  -3.172  22.985  1.00  0.00    -0.007 A 
HETATM   23  C   UNL     1     -17.857  -2.203  23.842  1.00  0.00     0.017 A 
HETATM   24  C   UNL     1     -19.168  -2.364  24.238  1.00  0.00     0.043 A 
HETATM   25  C   UNL     1     -19.835  -3.505  23.927  1.00  0.00     0.116 A 
HETATM   26  C   UNL     1     -19.339  -4.467  23.133  1.00  0.00     0.043 A 
HETATM   27  F   UNL     1     -21.115  -3.651  24.386  1.00  0.00    -0.206 F 
HETATM   28  C   UNL     1     -18.009  -4.312  22.652  1.00  0.00     0.017 A 
ENDBRANCH   8  22
TORSDOF 3
ENDMDL
MODEL 3
REMARK VINA RESULT:    -7.965      1.246      1.600
REMARK INTER + INTRA:          -9.966
REMARK INTER:                 -10.156
REMARK INTRA:                   0.191
REMARK UNBOUND:                -0.604
REMARK  3 active torsions:
REMARK  status: ('A' for Active; 'I' for Inactive)
REMARK       I    between atoms: C_2  and  N_15 
REMARK    1  A    between atoms: C_2  and  C_3 
REMARK    2  A    between atoms: C_8  and  C_25 
REMARK    3  A    between atoms: N_18  and  C_20 
ROOT
HETATM    1  C   UNL     1     -14.027  -1.563  21.097  1.00  0.00     0.120 A 
HETATM    2  C   UNL     1     -13.729  -3.521  22.257  1.00  0.00     0.180 A 
HETATM    3  C   UNL     1     -15.398  -1.545  21.398  1.00  0.00     0.073 A 
HETATM    4  N   UNL     1     -13.211  -2.533  21.550  1.00  0.00    -0.360 N 
ATOM      5  HN  UNL     1     -12.211  -2.506  21.351  1.00  0.00     0.166 HD
HETATM    6  N   UNL     1     -15.050  -3.582  22.627  1.00  0.00    -0.350 N 
ATOM      7  HN  UNL     1     -15.399  -4.367  23.176  1.00  0.00     0.166 HD
HETATM    8  C   UNL     1     -15.899  -2.560  22.243  1.00  0.00     0.071 A 
ENDROOT
BRANCH   3   9
HETATM    9  N   UNL     1     -16.255  -0.555  20.857  1.00  0.00    -0.378 N 
HETATM   10  C   UNL     1     -16.230   0.722  21.595  1.00  0.00     0.124 C 
HETATM   11  C   UNL     1     -16.801   1.854  20.726  1.00  0.00     0.034 C 
HETATM   12  C   UNL     1     -18.223   1.537  20.258  1.00  0.00     0.081 C 
HETATM   13  C   UNL     1     -18.194   0.179  19.536  1.00  0.00     0.034 C 
HETATM   14  C   UNL     1     -17.589  -0.930  20.414  1.00  0.00     0.124 C 
BRANCH  12  15
HETATM   15  C   UNL     1     -18.728   2.603  19.313  1.00  0.00     0.224 C 
HETATM   16  N   UNL     1     -19.285   3.648  19.904  1.00  0.00    -0.346 N 
HETATM   17  C   UNL     1     -19.764   4.875  19.276  1.00  0.00     0.164 A 
HETATM   18  C   UNL     1     -19.346   4.154  21.322  1.00  0.00     0.164 A 
HETATM   19  C   UNL     1     -19.798   5.522  20.655  1.00  0.00     0.206 A 
HETATM   20  F   UNL     1     -18.819   6.440  20.872  1.00  0.00    -0.246 F 
HETATM   21  O   UNL     1     -18.733   2.467  18.089  1.00  0.00    -0.273 OA
ENDBRANCH  12  15
ENDBRANCH   3   9
BRANCH   8  22
HETATM   22  C   UNL     1     -17.268  -2.566  22.839  1.00  0.00    -0.007 A 
HETATM   23  C   UNL     1     -17.655  -1.537  23.721  1.00  0.00     0.017 A 
HETATM   24  C   UNL     1     -18.948  -1.548  24.204  1.00  0.00     0.043 A 
HETATM   25  C   UNL     1     -19.759  -2.606  23.948  1.00  0.00     0.116 A 
HETATM   26  C   UNL     1     -19.429  -3.620  23.133  1.00  0.00     0.043 A 
HETATM   27  F   UNL     1     -21.014  -2.604  24.491  1.00  0.00    -0.206 F 
HETATM   28  C   UNL     1     -18.124  -3.618  22.564  1.00  0.00     0.017 A 
ENDBRANCH   8  22
TORSDOF 3
ENDMDL
MODEL 4
REMARK VINA RESULT:    -7.556      2.709      4.177
REMARK INTER + INTRA:          -9.486
REMARK INTER:                  -9.481
REMARK INTRA:                  -0.005
REMARK UNBOUND:                -0.604
REMARK  3 active torsions:
REMARK  status: ('A' for Active; 'I' for Inactive)
REMARK       I    between atoms: C_2  and  N_15 
REMARK    1  A    between atoms: C_2  and  C_3 
REMARK    2  A    between atoms: C_8  and  C_25 
REMARK    3  A    between atoms: N_18  and  C_20 
ROOT
HETATM    1  C   UNL     1     -20.495  -1.920  23.273  1.00  0.00     0.120 A 
HETATM    2  C   UNL     1     -19.970  -3.703  24.620  1.00  0.00     0.180 A 
HETATM    3  C   UNL     1     -19.139  -1.657  23.023  1.00  0.00     0.073 A 
HETATM    4  N   UNL     1     -20.890  -2.950  24.043  1.00  0.00    -0.360 N 
ATOM      5  HN  UNL     1     -21.882  -3.147  24.180  1.00  0.00     0.166 HD
HETATM    6  N   UNL     1     -18.621  -3.544  24.419  1.00  0.00    -0.350 N 
ATOM      7  HN  UNL     1     -17.952  -4.154  24.888  1.00  0.00     0.166 HD
HETATM    8  C   UNL     1     -18.185  -2.543  23.571  1.00  0.00     0.071 A 
ENDROOT
BRANCH   3   9
HETATM    9  N   UNL     1     -18.739  -0.528  22.266  1.00  0.00    -0.378 N 
HETATM   10  C   UNL     1     -19.744   0.550  22.227  1.00  0.00     0.124 C 
HETATM   11  C   UNL     1     -19.093   1.874  21.798  1.00  0.00     0.034 C 
HETATM   12  C   UNL     1     -18.402   1.744  20.439  1.00  0.00     0.081 C 
HETATM   13  C   UNL     1     -17.399   0.580  20.526  1.00  0.00     0.034 C 
HETATM   14  C   UNL     1     -18.069  -0.726  20.989  1.00  0.00     0.124 C 
BRANCH  12  15
HETATM   15  C   UNL     1     -17.671   3.017  20.083  1.00  0.00     0.224 C 
HETATM   16  N   UNL     1     -18.448   4.076  19.923  1.00  0.00    -0.346 N 
HETATM   17  C   UNL     1     -18.035   5.455  19.685  1.00  0.00     0.164 A 
HETATM   18  C   UNL     1     -19.891   4.386  20.229  1.00  0.00     0.164 A 
HETATM   19  C   UNL     1     -19.448   5.899  20.048  1.00  0.00     0.206 A 
HETATM   20  F   UNL     1     -19.554   6.517  21.254  1.00  0.00    -0.246 F 
HETATM   21  O   UNL     1     -16.463   3.053  19.843  1.00  0.00    -0.273 OA
ENDBRANCH  12  15
ENDBRANCH   3   9
BRANCH   8  22
HETATM   22  C   UNL     1     -16.733  -2.542  23.225  1.00  0.00    -0.007 A 
HETATM   23  C   UNL     1     -16.189  -3.597  22.466  1.00  0.00     0.017 A 
HETATM   24  C   UNL     1     -14.855  -3.528  22.119  1.00  0.00     0.043 A 
HETATM   25  C   UNL     1     -14.072  -2.545  22.631  1.00  0.00     0.116 A 
HETATM   26  C   UNL     1     -14.536  -1.530  23.375  1.00  0.00     0.043 A 
HETATM   27  F   UNL     1     -12.742  -2.544  22.307  1.00  0.00    -0.206 F 
HETATM   28  C   UNL     1     -15.920  -1.529  23.707  1.00  0.00     0.017 A 
ENDBRANCH   8  22
TORSDOF 3
ENDMDL
