MODEL 1
REMARK VINA RESULT:    -6.603      0.000      0.000
REMARK INTER + INTRA:         -12.284
REMARK INTER:                 -10.463
REMARK INTRA:                  -1.821
REMARK UNBOUND:                -1.821
REMARK  10 active torsions:
REMARK  status: ('A' for Active; 'I' for Inactive)
REMARK    1  A    between atoms: C_8  and  O_27 
REMARK    2  A    between atoms: C_10  and  C_15 
REMARK    3  A    between atoms: C_11  and  C_23 
REMARK    4  A    between atoms: C_12  and  C_36 
REMARK    5  A    between atoms: C_12  and  C_14 
REMARK    6  A    between atoms: C_14  and  O_35 
REMARK    7  A    between atoms: C_20  and  C_23 
REMARK    8  A    between atoms: C_21  and  N_22 
REMARK    9  A    between atoms: C_23  and  O_27 
REMARK   10  A    between atoms: C_32  and  O_35 
ROOT
HETATM    1  C   UNL     1      -1.379  29.350   6.296  1.00  0.00     0.024 A 
HETATM    2  C   UNL     1      -2.109  28.175   6.065  1.00  0.00     0.018 A 
HETATM    3  N   UNL     1      -1.515  26.979   5.988  1.00  0.00    -0.362 N 
ATOM      4  HN  UNL     1      -2.072  26.146   5.800  1.00  0.00     0.165 HD
HETATM    5  C   UNL     1      -0.196  26.874   6.158  1.00  0.00     0.017 A 
HETATM    6  C   UNL     1       0.635  28.006   6.359  1.00  0.00     0.031 A 
HETATM    7  C   UNL     1       0.022  29.271   6.416  1.00  0.00     0.054 A 
HETATM    8  C   UNL     1       0.340  25.472   6.150  1.00  0.00     0.069 C 
HETATM    9  C   UNL     1      -3.604  28.161   5.952  1.00  0.00     0.069 C 
ENDROOT
BRANCH   1  10
HETATM   10  C   UNL     1      -2.150  30.604   6.570  1.00  0.00    -0.022 A 
HETATM   11  C   UNL     1      -2.356  31.061   7.874  1.00  0.00     0.015 A 
HETATM   12  C   UNL     1      -3.116  32.187   8.125  1.00  0.00     0.037 A 
HETATM   13  C   UNL     1      -3.681  32.885   7.068  1.00  0.00     0.068 A 
HETATM   14  C   UNL     1      -3.472  32.462   5.765  1.00  0.00     0.037 A 
HETATM   15  C   UNL     1      -2.704  31.340   5.524  1.00  0.00     0.015 A 
BRANCH  13  16
HETATM   16  O   UNL     1      -4.467  33.962   7.384  1.00  0.00    -0.351 OA
BRANCH  16  17
HETATM   17  C   UNL     1      -3.910  35.003   8.213  1.00  0.00     0.180 C 
BRANCH  17  18
HETATM   18  C   UNL     1      -4.780  36.250   8.163  1.00  0.00     0.065 C 
BRANCH  18  19
HETATM   19  C   UNL     1      -4.302  37.270   7.162  1.00  0.00    -0.056 A 
HETATM   20  C   UNL     1      -3.486  38.321   7.550  1.00  0.00     0.010 A 
HETATM   21  C   UNL     1      -3.041  39.257   6.634  1.00  0.00     0.043 A 
HETATM   22  C   UNL     1      -3.418  39.112   5.329  1.00  0.00     0.116 A 
HETATM   23  C   UNL     1      -4.214  38.093   4.896  1.00  0.00     0.043 A 
HETATM   24  F   UNL     1      -2.990  40.027   4.425  1.00  0.00    -0.206 F 
HETATM   25  C   UNL     1      -4.659  37.170   5.827  1.00  0.00     0.010 A 
ENDBRANCH  18  19
ENDBRANCH  17  18
ENDBRANCH  16  17
ENDBRANCH  13  16
ENDBRANCH   1  10
BRANCH   7  26
HETATM   26  N   UNL     1       0.812  30.437   6.554  1.00  0.00    -0.379 N 
HETATM   27  C   UNL     1       0.791  31.501   5.548  1.00  0.00     0.123 C 
HETATM   28  C   UNL     1       2.134  32.204   5.465  1.00  0.00     0.028 C 
HETATM   29  C   UNL     1       2.688  32.716   6.801  1.00  0.00    -0.045 C 
HETATM   30  C   UNL     1       1.892  33.929   7.286  1.00  0.00     0.015 C 
HETATM   31  C   UNL     1       4.153  33.118   6.617  1.00  0.00     0.015 C 
HETATM   32  C   UNL     1       2.585  31.585   7.833  1.00  0.00     0.028 C 
HETATM   33  C   UNL     1       1.220  30.915   7.879  1.00  0.00     0.123 C 
ENDBRANCH   7  26
BRANCH   6  34
HETATM   34  C   UNL     1       2.167  27.881   6.470  1.00  0.00     0.260 C 
BRANCH  34  35
HETATM   35  O   UNL     1       2.735  27.186   5.358  1.00  0.00    -0.360 OA
BRANCH  35  36
HETATM   36  C   UNL     1       3.540  27.878   4.366  1.00  0.00     0.051 C 
HETATM   37  C   UNL     1       4.684  28.626   5.025  1.00  0.00     0.045 C 
HETATM   38  C   UNL     1       2.700  28.822   3.528  1.00  0.00     0.045 C 
HETATM   39  C   UNL     1       4.046  26.725   3.529  1.00  0.00     0.045 C 
ENDBRANCH  35  36
ENDBRANCH  34  35
BRANCH  34  40
HETATM   40  C   UNL     1       2.493  27.191   7.790  1.00  0.00     0.208 C 
HETATM   41  O   UNL     1       3.363  26.235   7.682  1.00  0.00    -0.646 OA
HETATM   42  O   UNL     1       1.982  27.533   8.846  1.00  0.00    -0.646 OA
ENDBRANCH  34  40
ENDBRANCH   6  34
TORSDOF 10
ENDMDL
MODEL 2
REMARK VINA RESULT:    -6.573      2.288      4.703
REMARK INTER + INTRA:         -12.236
REMARK INTER:                 -10.243
REMARK INTRA:                  -1.993
REMARK UNBOUND:                -1.821
REMARK  10 active torsions:
REMARK  status: ('A' for Active; 'I' for Inactive)
REMARK    1  A    between atoms: C_8  and  O_27 
REMARK    2  A    between atoms: C_10  and  C_15 
REMARK    3  A    between atoms: C_11  and  C_23 
REMARK    4  A    between atoms: C_12  and  C_36 
REMARK    5  A    between atoms: C_12  and  C_14 
REMARK    6  A    between atoms: C_14  and  O_35 
REMARK    7  A    between atoms: C_20  and  C_23 
REMARK    8  A    between atoms: C_21  and  N_22 
REMARK    9  A    between atoms: C_23  and  O_27 
REMARK   10  A    between atoms: C_32  and  O_35 
ROOT
HETATM    1  C   UNL     1       2.813  31.549   8.548  1.00  0.00     0.024 A 
HETATM    2  C   UNL     1       4.135  31.466   9.006  1.00  0.00     0.018 A 
HETATM    3  N   UNL     1       5.025  30.636   8.449  1.00  0.00    -0.362 N 
ATOM      4  HN  UNL     1       5.974  30.585   8.818  1.00  0.00     0.165 HD
HETATM    5  C   UNL     1       4.670  29.874   7.412  1.00  0.00     0.017 A 
HETATM    6  C   UNL     1       3.349  29.858   6.899  1.00  0.00     0.031 A 
HETATM    7  C   UNL     1       2.401  30.710   7.495  1.00  0.00     0.054 A 
HETATM    8  C   UNL     1       5.779  29.060   6.809  1.00  0.00     0.069 C 
HETATM    9  C   UNL     1       4.669  32.339  10.102  1.00  0.00     0.069 C 
ENDROOT
BRANCH   1  10
HETATM   10  C   UNL     1       1.957  32.649   9.096  1.00  0.00    -0.022 A 
HETATM   11  C   UNL     1       1.195  32.468  10.253  1.00  0.00     0.015 A 
HETATM   12  C   UNL     1       0.362  33.465  10.724  1.00  0.00     0.037 A 
HETATM   13  C   UNL     1       0.284  34.672  10.045  1.00  0.00     0.068 A 
HETATM   14  C   UNL     1       1.047  34.881   8.908  1.00  0.00     0.037 A 
HETATM   15  C   UNL     1       1.882  33.881   8.451  1.00  0.00     0.015 A 
BRANCH  13  16
HETATM   16  O   UNL     1      -0.598  35.602  10.532  1.00  0.00    -0.351 OA
BRANCH  16  17
HETATM   17  C   UNL     1      -1.940  35.621  10.004  1.00  0.00     0.180 C 
BRANCH  17  18
HETATM   18  C   UNL     1      -2.720  36.799  10.567  1.00  0.00     0.065 C 
BRANCH  18  19
HETATM   19  C   UNL     1      -2.844  37.948   9.599  1.00  0.00    -0.056 A 
HETATM   20  C   UNL     1      -2.716  37.745   8.233  1.00  0.00     0.010 A 
HETATM   21  C   UNL     1      -2.833  38.796   7.341  1.00  0.00     0.043 A 
HETATM   22  C   UNL     1      -3.089  40.040   7.840  1.00  0.00     0.116 A 
HETATM   23  C   UNL     1      -3.230  40.291   9.173  1.00  0.00     0.043 A 
HETATM   24  F   UNL     1      -3.202  41.076   6.972  1.00  0.00    -0.206 F 
HETATM   25  C   UNL     1      -3.100  39.231  10.054  1.00  0.00     0.010 A 
ENDBRANCH  18  19
ENDBRANCH  17  18
ENDBRANCH  16  17
ENDBRANCH  13  16
ENDBRANCH   1  10
BRANCH   7  26
HETATM   26  N   UNL     1       1.053  30.687   7.062  1.00  0.00    -0.379 N 
HETATM   27  C   UNL     1       0.672  31.122   5.717  1.00  0.00     0.123 C 
HETATM   28  C   UNL     1      -0.722  31.721   5.708  1.00  0.00     0.028 C 
HETATM   29  C   UNL     1      -1.814  30.843   6.336  1.00  0.00    -0.045 C 
HETATM   30  C   UNL     1      -2.135  29.652   5.431  1.00  0.00     0.015 C 
HETATM   31  C   UNL     1      -3.080  31.680   6.532  1.00  0.00     0.015 C 
HETATM   32  C   UNL     1      -1.308  30.339   7.694  1.00  0.00     0.028 C 
HETATM   33  C   UNL     1       0.092  29.747   7.649  1.00  0.00     0.123 C 
ENDBRANCH   7  26
BRANCH   6  34
HETATM   34  C   UNL     1       2.931  28.914   5.756  1.00  0.00     0.260 C 
BRANCH  34  35
HETATM   35  O   UNL     1       3.150  27.539   6.081  1.00  0.00    -0.360 OA
BRANCH  35  36
HETATM   36  C   UNL     1       2.080  26.560   5.986  1.00  0.00     0.051 C 
HETATM   37  C   UNL     1       2.551  25.315   5.257  1.00  0.00     0.045 C 
HETATM   38  C   UNL     1       0.854  27.140   5.309  1.00  0.00     0.045 C 
HETATM   39  C   UNL     1       1.802  26.273   7.444  1.00  0.00     0.045 C 
ENDBRANCH  35  36
ENDBRANCH  34  35
BRANCH  34  40
HETATM   40  C   UNL     1       3.693  29.322   4.499  1.00  0.00     0.208 C 
HETATM   41  O   UNL     1       4.051  28.322   3.754  1.00  0.00    -0.646 OA
HETATM   42  O   UNL     1       3.922  30.491   4.229  1.00  0.00    -0.646 OA
ENDBRANCH  34  40
ENDBRANCH   6  34
TORSDOF 10
ENDMDL
MODEL 3
REMARK VINA RESULT:    -6.565      2.079      4.529
REMARK INTER + INTRA:         -12.224
REMARK INTER:                 -10.088
REMARK INTRA:                  -2.136
REMARK UNBOUND:                -1.821
REMARK  10 active torsions:
REMARK  status: ('A' for Active; 'I' for Inactive)
REMARK    1  A    between atoms: C_8  and  O_27 
REMARK    2  A    between atoms: C_10  and  C_15 
REMARK    3  A    between atoms: C_11  and  C_23 
REMARK    4  A    between atoms: C_12  and  C_36 
REMARK    5  A    between atoms: C_12  and  C_14 
REMARK    6  A    between atoms: C_14  and  O_35 
REMARK    7  A    between atoms: C_20  and  C_23 
REMARK    8  A    between atoms: C_21  and  N_22 
REMARK    9  A    between atoms: C_23  and  O_27 
REMARK   10  A    between atoms: C_32  and  O_35 
ROOT
HETATM    1  C   UNL     1       2.505  31.776   8.517  1.00  0.00     0.024 A 
HETATM    2  C   UNL     1       3.823  31.790   8.994  1.00  0.00     0.018 A 
HETATM    3  N   UNL     1       4.767  30.991   8.485  1.00  0.00    -0.362 N 
ATOM      4  HN  UNL     1       5.713  31.012   8.867  1.00  0.00     0.165 HD
HETATM    5  C   UNL     1       4.473  30.166   7.478  1.00  0.00     0.017 A 
HETATM    6  C   UNL     1       3.163  30.050   6.950  1.00  0.00     0.031 A 
HETATM    7  C   UNL     1       2.158  30.869   7.497  1.00  0.00     0.054 A 
HETATM    8  C   UNL     1       5.636  29.394   6.925  1.00  0.00     0.069 C 
HETATM    9  C   UNL     1       4.289  32.740  10.057  1.00  0.00     0.069 C 
ENDROOT
BRANCH   1  10
HETATM   10  C   UNL     1       1.578  32.845   9.007  1.00  0.00    -0.022 A 
HETATM   11  C   UNL     1       0.748  32.638  10.111  1.00  0.00     0.015 A 
HETATM   12  C   UNL     1      -0.147  33.606  10.525  1.00  0.00     0.037 A 
HETATM   13  C   UNL     1      -0.221  34.811   9.841  1.00  0.00     0.068 A 
HETATM   14  C   UNL     1       0.608  35.046   8.756  1.00  0.00     0.037 A 
HETATM   15  C   UNL     1       1.505  34.075   8.356  1.00  0.00     0.015 A 
BRANCH  13  16
HETATM   16  O   UNL     1      -1.164  35.709  10.267  1.00  0.00    -0.351 OA
BRANCH  16  17
HETATM   17  C   UNL     1      -2.377  35.852   9.500  1.00  0.00     0.180 C 
BRANCH  17  18
HETATM   18  C   UNL     1      -2.729  37.321   9.325  1.00  0.00     0.065 C 
BRANCH  18  19
HETATM   19  C   UNL     1      -3.195  37.659   7.932  1.00  0.00    -0.056 A 
HETATM   20  C   UNL     1      -4.128  36.866   7.281  1.00  0.00     0.010 A 
HETATM   21  C   UNL     1      -4.562  37.174   6.003  1.00  0.00     0.043 A 
HETATM   22  C   UNL     1      -4.054  38.290   5.402  1.00  0.00     0.116 A 
HETATM   23  C   UNL     1      -3.140  39.106   6.002  1.00  0.00     0.043 A 
HETATM   24  F   UNL     1      -4.471  38.598   4.149  1.00  0.00    -0.206 F 
HETATM   25  C   UNL     1      -2.708  38.779   7.276  1.00  0.00     0.010 A 
ENDBRANCH  18  19
ENDBRANCH  17  18
ENDBRANCH  16  17
ENDBRANCH  13  16
ENDBRANCH   1  10
BRANCH   7  26
HETATM   26  N   UNL     1       0.820  30.748   7.049  1.00  0.00    -0.379 N 
HETATM   27  C   UNL     1       0.414  31.196   5.716  1.00  0.00     0.123 C 
HETATM   28  C   UNL     1      -1.026  31.676   5.713  1.00  0.00     0.028 C 
HETATM   29  C   UNL     1      -2.044  30.688   6.299  1.00  0.00    -0.045 C 
HETATM   30  C   UNL     1      -2.257  29.506   5.350  1.00  0.00     0.015 C 
HETATM   31  C   UNL     1      -3.378  31.408   6.510  1.00  0.00     0.015 C 
HETATM   32  C   UNL     1      -1.508  30.180   7.644  1.00  0.00     0.028 C 
HETATM   33  C   UNL     1      -0.062  29.711   7.593  1.00  0.00     0.123 C 
ENDBRANCH   7  26
BRANCH   6  34
HETATM   34  C   UNL     1       2.817  29.035   5.844  1.00  0.00     0.260 C 
BRANCH  34  35
HETATM   35  O   UNL     1       3.144  27.694   6.218  1.00  0.00    -0.360 OA
BRANCH  35  36
HETATM   36  C   UNL     1       2.131  26.652   6.259  1.00  0.00     0.051 C 
HETATM   37  C   UNL     1       0.941  27.023   5.394  1.00  0.00     0.045 C 
HETATM   38  C   UNL     1       1.687  26.364   7.680  1.00  0.00     0.045 C 
HETATM   39  C   UNL     1       2.886  25.475   5.684  1.00  0.00     0.045 C 
ENDBRANCH  35  36
ENDBRANCH  34  35
BRANCH  34  40
HETATM   40  C   UNL     1       3.542  29.454   4.570  1.00  0.00     0.208 C 
HETATM   41  O   UNL     1       3.977  28.459   3.860  1.00  0.00    -0.646 OA
HETATM   42  O   UNL     1       3.677  30.627   4.256  1.00  0.00    -0.646 OA
ENDBRANCH  34  40
ENDBRANCH   6  34
TORSDOF 10
ENDMDL
MODEL 4
REMARK VINA RESULT:    -6.466      1.604      2.383
REMARK INTER + INTRA:         -12.067
REMARK INTER:                 -10.486
REMARK INTRA:                  -1.581
REMARK UNBOUND:                -1.821
REMARK  10 active torsions:
REMARK  status: ('A' for Active; 'I' for Inactive)
REMARK    1  A    between atoms: C_8  and  O_27 
REMARK    2  A    between atoms: C_10  and  C_15 
REMARK    3  A    between atoms: C_11  and  C_23 
REMARK    4  A    between atoms: C_12  and  C_36 
REMARK    5  A    between atoms: C_12  and  C_14 
REMARK    6  A    between atoms: C_14  and  O_35 
REMARK    7  A    between atoms: C_20  and  C_23 
REMARK    8  A    between atoms: C_21  and  N_22 
REMARK    9  A    between atoms: C_23  and  O_27 
REMARK   10  A    between atoms: C_32  and  O_35 
ROOT
HETATM    1  C   UNL     1      -0.053  29.345   6.021  1.00  0.00     0.024 A 
HETATM    2  C   UNL     1      -0.584  28.129   5.566  1.00  0.00     0.018 A 
HETATM    3  N   UNL     1       0.200  27.105   5.213  1.00  0.00    -0.362 N 
ATOM      4  HN  UNL     1      -0.216  26.240   4.868  1.00  0.00     0.165 HD
HETATM    5  C   UNL     1       1.527  27.213   5.312  1.00  0.00     0.017 A 
HETATM    6  C   UNL     1       2.162  28.411   5.725  1.00  0.00     0.031 A 
HETATM    7  C   UNL     1       1.345  29.502   6.074  1.00  0.00     0.054 A 
HETATM    8  C   UNL     1       2.295  25.965   4.983  1.00  0.00     0.069 C 
HETATM    9  C   UNL     1      -2.058  27.864   5.502  1.00  0.00     0.069 C 
ENDROOT
BRANCH   1  10
HETATM   10  C   UNL     1      -1.008  30.351   6.584  1.00  0.00    -0.022 A 
HETATM   11  C   UNL     1      -1.295  30.396   7.951  1.00  0.00     0.015 A 
HETATM   12  C   UNL     1      -2.219  31.289   8.458  1.00  0.00     0.037 A 
HETATM   13  C   UNL     1      -2.871  32.164   7.603  1.00  0.00     0.068 A 
HETATM   14  C   UNL     1      -2.586  32.152   6.247  1.00  0.00     0.037 A 
HETATM   15  C   UNL     1      -1.655  31.261   5.751  1.00  0.00     0.015 A 
BRANCH  13  16
HETATM   16  O   UNL     1      -3.814  32.989   8.159  1.00  0.00    -0.351 OA
BRANCH  16  17
HETATM   17  C   UNL     1      -3.449  34.352   8.457  1.00  0.00     0.180 C 
BRANCH  17  18
HETATM   18  C   UNL     1      -4.574  35.303   8.077  1.00  0.00     0.065 C 
BRANCH  18  19
HETATM   19  C   UNL     1      -4.084  36.575   7.434  1.00  0.00    -0.056 A 
HETATM   20  C   UNL     1      -3.156  37.384   8.071  1.00  0.00     0.010 A 
HETATM   21  C   UNL     1      -2.701  38.550   7.482  1.00  0.00     0.043 A 
HETATM   22  C   UNL     1      -3.183  38.881   6.248  1.00  0.00     0.116 A 
HETATM   23  C   UNL     1      -4.092  38.116   5.578  1.00  0.00     0.043 A 
HETATM   24  F   UNL     1      -2.745  40.024   5.665  1.00  0.00    -0.206 F 
HETATM   25  C   UNL     1      -4.545  36.957   6.184  1.00  0.00     0.010 A 
ENDBRANCH  18  19
ENDBRANCH  17  18
ENDBRANCH  16  17
ENDBRANCH  13  16
ENDBRANCH   1  10
BRANCH   7  26
HETATM   26  N   UNL     1       1.930  30.740   6.434  1.00  0.00    -0.379 N 
HETATM   27  C   UNL     1       1.881  31.900   5.542  1.00  0.00     0.123 C 
HETATM   28  C   UNL     1       3.104  32.780   5.718  1.00  0.00     0.028 C 
HETATM   29  C   UNL     1       3.399  33.206   7.163  1.00  0.00    -0.045 C 
HETATM   30  C   UNL     1       2.377  34.238   7.642  1.00  0.00     0.015 C 
HETATM   31  C   UNL     1       4.800  33.818   7.230  1.00  0.00     0.015 C 
HETATM   32  C   UNL     1       3.333  31.961   8.058  1.00  0.00     0.028 C 
HETATM   33  C   UNL     1       2.089  31.114   7.843  1.00  0.00     0.123 C 
ENDBRANCH   7  26
BRANCH   6  34
HETATM   34  C   UNL     1       3.696  28.551   5.756  1.00  0.00     0.260 C 
BRANCH  34  35
HETATM   35  O   UNL     1       4.166  29.076   6.999  1.00  0.00    -0.360 OA
BRANCH  35  36
HETATM   36  C   UNL     1       4.946  28.261   7.917  1.00  0.00     0.051 C 
HETATM   37  C   UNL     1       5.715  27.189   7.167  1.00  0.00     0.045 C 
HETATM   38  C   UNL     1       4.072  27.638   8.988  1.00  0.00     0.045 C 
HETATM   39  C   UNL     1       5.878  29.290   8.517  1.00  0.00     0.045 C 
ENDBRANCH  35  36
ENDBRANCH  34  35
BRANCH  34  40
HETATM   40  C   UNL     1       4.117  29.427   4.581  1.00  0.00     0.208 C 
HETATM   41  O   UNL     1       5.093  30.237   4.853  1.00  0.00    -0.646 OA
HETATM   42  O   UNL     1       3.582  29.346   3.486  1.00  0.00    -0.646 OA
ENDBRANCH  34  40
ENDBRANCH   6  34
TORSDOF 10
ENDMDL
MODEL 5
REMARK VINA RESULT:    -6.426      3.735     10.191
REMARK INTER + INTRA:         -12.003
REMARK INTER:                 -10.093
REMARK INTRA:                  -1.910
REMARK UNBOUND:                -1.821
REMARK  10 active torsions:
REMARK  status: ('A' for Active; 'I' for Inactive)
REMARK    1  A    between atoms: C_8  and  O_27 
REMARK    2  A    between atoms: C_10  and  C_15 
REMARK    3  A    between atoms: C_11  and  C_23 
REMARK    4  A    between atoms: C_12  and  C_36 
REMARK    5  A    between atoms: C_12  and  C_14 
REMARK    6  A    between atoms: C_14  and  O_35 
REMARK    7  A    between atoms: C_20  and  C_23 
REMARK    8  A    between atoms: C_21  and  N_22 
REMARK    9  A    between atoms: C_23  and  O_27 
REMARK   10  A    between atoms: C_32  and  O_35 
ROOT
HETATM    1  C   UNL     1       0.782  32.604   7.376  1.00  0.00     0.024 A 
HETATM    2  C   UNL     1       1.484  33.690   7.916  1.00  0.00     0.018 A 
HETATM    3  N   UNL     1       0.904  34.562   8.749  1.00  0.00    -0.362 N 
ATOM      4  HN  UNL     1       1.437  35.352   9.111  1.00  0.00     0.165 HD
HETATM    5  C   UNL     1      -0.371  34.398   9.108  1.00  0.00     0.017 A 
HETATM    6  C   UNL     1      -1.177  33.354   8.587  1.00  0.00     0.031 A 
HETATM    7  C   UNL     1      -0.582  32.447   7.691  1.00  0.00     0.054 A 
HETATM    8  C   UNL     1      -0.880  35.380  10.123  1.00  0.00     0.069 C 
HETATM    9  C   UNL     1       2.943  33.920   7.658  1.00  0.00     0.069 C 
ENDROOT
BRANCH   1  10
HETATM   10  C   UNL     1       1.568  31.575   6.623  1.00  0.00    -0.022 A 
HETATM   11  C   UNL     1       1.727  31.652   5.237  1.00  0.00     0.015 A 
HETATM   12  C   UNL     1       2.404  30.670   4.540  1.00  0.00     0.037 A 
HETATM   13  C   UNL     1       2.945  29.591   5.223  1.00  0.00     0.068 A 
HETATM   14  C   UNL     1       2.818  29.506   6.600  1.00  0.00     0.037 A 
HETATM   15  C   UNL     1       2.146  30.496   7.288  1.00  0.00     0.015 A 
BRANCH  13  16
HETATM   16  O   UNL     1       3.559  28.624   4.470  1.00  0.00    -0.351 OA
BRANCH  16  17
HETATM   17  C   UNL     1       2.737  27.647   3.800  1.00  0.00     0.180 C 
BRANCH  17  18
HETATM   18  C   UNL     1       3.104  26.241   4.250  1.00  0.00     0.065 C 
BRANCH  18  19
HETATM   19  C   UNL     1       4.254  25.649   3.475  1.00  0.00    -0.056 A 
HETATM   20  C   UNL     1       4.185  25.507   2.098  1.00  0.00     0.010 A 
HETATM   21  C   UNL     1       5.240  24.968   1.382  1.00  0.00     0.043 A 
HETATM   22  C   UNL     1       6.358  24.590   2.067  1.00  0.00     0.116 A 
HETATM   23  C   UNL     1       6.478  24.716   3.420  1.00  0.00     0.043 A 
HETATM   24  F   UNL     1       7.396  24.058   1.374  1.00  0.00    -0.206 F 
HETATM   25  C   UNL     1       5.410  25.247   4.124  1.00  0.00     0.010 A 
ENDBRANCH  18  19
ENDBRANCH  17  18
ENDBRANCH  16  17
ENDBRANCH  13  16
ENDBRANCH   1  10
BRANCH   7  26
HETATM   26  N   UNL     1      -1.358  31.425   7.095  1.00  0.00    -0.379 N 
HETATM   27  C   UNL     1      -1.780  31.498   5.695  1.00  0.00     0.123 C 
HETATM   28  C   UNL     1      -3.114  30.805   5.486  1.00  0.00     0.028 C 
HETATM   29  C   UNL     1      -3.192  29.366   6.013  1.00  0.00    -0.045 C 
HETATM   30  C   UNL     1      -2.371  28.423   5.131  1.00  0.00     0.015 C 
HETATM   31  C   UNL     1      -4.652  28.909   6.012  1.00  0.00     0.015 C 
HETATM   32  C   UNL     1      -2.640  29.343   7.445  1.00  0.00     0.028 C 
HETATM   33  C   UNL     1      -1.302  30.049   7.600  1.00  0.00     0.123 C 
ENDBRANCH   7  26
BRANCH   6  34
HETATM   34  C   UNL     1      -2.670  33.224   8.943  1.00  0.00     0.260 C 
BRANCH  34  35
HETATM   35  O   UNL     1      -3.345  34.484   8.914  1.00  0.00    -0.360 OA
BRANCH  35  36
HETATM   36  C   UNL     1      -4.525  34.689   8.090  1.00  0.00     0.051 C 
HETATM   37  C   UNL     1      -5.791  34.516   8.908  1.00  0.00     0.045 C 
HETATM   38  C   UNL     1      -4.535  33.761   6.891  1.00  0.00     0.045 C 
HETATM   39  C   UNL     1      -4.344  36.125   7.654  1.00  0.00     0.045 C 
ENDBRANCH  35  36
ENDBRANCH  34  35
BRANCH  34  40
HETATM   40  C   UNL     1      -2.776  32.562  10.313  1.00  0.00     0.208 C 
HETATM   41  O   UNL     1      -3.437  33.260  11.184  1.00  0.00    -0.646 OA
HETATM   42  O   UNL     1      -2.290  31.466  10.544  1.00  0.00    -0.646 OA
ENDBRANCH  34  40
ENDBRANCH   6  34
TORSDOF 10
ENDMDL
MODEL 6
REMARK VINA RESULT:    -6.325      3.196      4.438
REMARK INTER + INTRA:         -11.843
REMARK INTER:                  -9.062
REMARK INTRA:                  -2.781
REMARK UNBOUND:                -1.821
REMARK  10 active torsions:
REMARK  status: ('A' for Active; 'I' for Inactive)
REMARK    1  A    between atoms: C_8  and  O_27 
REMARK    2  A    between atoms: C_10  and  C_15 
REMARK    3  A    between atoms: C_11  and  C_23 
REMARK    4  A    between atoms: C_12  and  C_36 
REMARK    5  A    between atoms: C_12  and  C_14 
REMARK    6  A    between atoms: C_14  and  O_35 
REMARK    7  A    between atoms: C_20  and  C_23 
REMARK    8  A    between atoms: C_21  and  N_22 
REMARK    9  A    between atoms: C_23  and  O_27 
REMARK   10  A    between atoms: C_32  and  O_35 
ROOT
HETATM    1  C   UNL     1       0.136  28.915   6.107  1.00  0.00     0.024 A 
HETATM    2  C   UNL     1      -0.347  27.656   5.725  1.00  0.00     0.018 A 
HETATM    3  N   UNL     1       0.474  26.667   5.354  1.00  0.00    -0.362 N 
ATOM      4  HN  UNL     1       0.089  25.768   5.064  1.00  0.00     0.165 HD
HETATM    5  C   UNL     1       1.795  26.855   5.364  1.00  0.00     0.017 A 
HETATM    6  C   UNL     1       2.381  28.102   5.698  1.00  0.00     0.031 A 
HETATM    7  C   UNL     1       1.523  29.156   6.065  1.00  0.00     0.054 A 
HETATM    8  C   UNL     1       2.615  25.644   5.025  1.00  0.00     0.069 C 
HETATM    9  C   UNL     1      -1.804  27.302   5.765  1.00  0.00     0.069 C 
ENDROOT
BRANCH   1  10
HETATM   10  C   UNL     1      -0.841  29.883   6.699  1.00  0.00    -0.022 A 
HETATM   11  C   UNL     1      -1.436  30.881   5.923  1.00  0.00     0.015 A 
HETATM   12  C   UNL     1      -2.294  31.808   6.486  1.00  0.00     0.037 A 
HETATM   13  C   UNL     1      -2.579  31.746   7.841  1.00  0.00     0.068 A 
HETATM   14  C   UNL     1      -2.016  30.752   8.625  1.00  0.00     0.037 A 
HETATM   15  C   UNL     1      -1.168  29.826   8.052  1.00  0.00     0.015 A 
BRANCH  13  16
HETATM   16  O   UNL     1      -3.393  32.724   8.349  1.00  0.00    -0.351 OA
BRANCH  16  17
HETATM   17  C   UNL     1      -2.983  33.409   9.550  1.00  0.00     0.180 C 
BRANCH  17  18
HETATM   18  C   UNL     1      -1.829  34.357   9.257  1.00  0.00     0.065 C 
BRANCH  18  19
HETATM   19  C   UNL     1      -0.646  34.153  10.169  1.00  0.00    -0.056 A 
HETATM   20  C   UNL     1       0.203  33.070  10.002  1.00  0.00     0.010 A 
HETATM   21  C   UNL     1       1.292  32.881  10.835  1.00  0.00     0.043 A 
HETATM   22  C   UNL     1       1.516  33.798  11.821  1.00  0.00     0.116 A 
HETATM   23  C   UNL     1       0.715  34.883  12.022  1.00  0.00     0.043 A 
HETATM   24  F   UNL     1       2.580  33.619  12.644  1.00  0.00    -0.206 F 
HETATM   25  C   UNL     1      -0.377  35.053  11.188  1.00  0.00     0.010 A 
ENDBRANCH  18  19
ENDBRANCH  17  18
ENDBRANCH  16  17
ENDBRANCH  13  16
ENDBRANCH   1  10
BRANCH   7  26
HETATM   26  N   UNL     1       2.053  30.437   6.347  1.00  0.00    -0.379 N 
HETATM   27  C   UNL     1       1.898  31.555   5.414  1.00  0.00     0.123 C 
HETATM   28  C   UNL     1       3.076  32.507   5.497  1.00  0.00     0.028 C 
HETATM   29  C   UNL     1       3.414  33.007   6.908  1.00  0.00    -0.045 C 
HETATM   30  C   UNL     1       2.358  34.002   7.395  1.00  0.00     0.015 C 
HETATM   31  C   UNL     1       4.779  33.698   6.883  1.00  0.00     0.015 C 
HETATM   32  C   UNL     1       3.459  31.799   7.853  1.00  0.00     0.028 C 
HETATM   33  C   UNL     1       2.256  30.877   7.732  1.00  0.00     0.123 C 
ENDBRANCH   7  26
BRANCH   6  34
HETATM   34  C   UNL     1       3.902  28.332   5.625  1.00  0.00     0.260 C 
BRANCH  34  35
HETATM   35  O   UNL     1       4.425  28.880   6.838  1.00  0.00    -0.360 OA
BRANCH  35  36
HETATM   36  C   UNL     1       5.212  28.071   7.754  1.00  0.00     0.051 C 
HETATM   37  C   UNL     1       6.135  27.137   6.994  1.00  0.00     0.045 C 
HETATM   38  C   UNL     1       4.327  27.288   8.704  1.00  0.00     0.045 C 
HETATM   39  C   UNL     1       5.993  29.131   8.499  1.00  0.00     0.045 C 
ENDBRANCH  35  36
ENDBRANCH  34  35
BRANCH  34  40
HETATM   40  C   UNL     1       4.190  29.237   4.431  1.00  0.00     0.208 C 
HETATM   41  O   UNL     1       5.143  30.092   4.638  1.00  0.00    -0.646 OA
HETATM   42  O   UNL     1       3.578  29.137   3.379  1.00  0.00    -0.646 OA
ENDBRANCH  34  40
ENDBRANCH   6  34
TORSDOF 10
ENDMDL
MODEL 7
REMARK VINA RESULT:    -6.314      1.268      1.570
REMARK INTER + INTRA:         -11.825
REMARK INTER:                  -9.838
REMARK INTRA:                  -1.987
REMARK UNBOUND:                -1.821
REMARK  10 active torsions:
REMARK  status: ('A' for Active; 'I' for Inactive)
REMARK    1  A    between atoms: C_8  and  O_27 
REMARK    2  A    between atoms: C_10  and  C_15 
REMARK    3  A    between atoms: C_11  and  C_23 
REMARK    4  A    between atoms: C_12  and  C_36 
REMARK    5  A    between atoms: C_12  and  C_14 
REMARK    6  A    between atoms: C_14  and  O_35 
REMARK    7  A    between atoms: C_20  and  C_23 
REMARK    8  A    between atoms: C_21  and  N_22 
REMARK    9  A    between atoms: C_23  and  O_27 
REMARK   10  A    between atoms: C_32  and  O_35 
ROOT
HETATM    1  C   UNL     1      -1.298  29.463   6.583  1.00  0.00     0.024 A 
HETATM    2  C   UNL     1      -2.057  28.309   6.341  1.00  0.00     0.018 A 
HETATM    3  N   UNL     1      -1.488  27.109   6.184  1.00  0.00    -0.362 N 
ATOM      4  HN  UNL     1      -2.066  26.292   5.991  1.00  0.00     0.165 HD
HETATM    5  C   UNL     1      -0.163  26.980   6.280  1.00  0.00     0.017 A 
HETATM    6  C   UNL     1       0.695  28.090   6.484  1.00  0.00     0.031 A 
HETATM    7  C   UNL     1       0.105  29.360   6.625  1.00  0.00     0.054 A 
HETATM    8  C   UNL     1       0.350  25.572   6.186  1.00  0.00     0.069 C 
HETATM    9  C   UNL     1      -3.557  28.320   6.307  1.00  0.00     0.069 C 
ENDROOT
BRANCH   1  10
HETATM   10  C   UNL     1      -2.035  30.715   6.948  1.00  0.00    -0.022 A 
HETATM   11  C   UNL     1      -2.299  31.040   8.281  1.00  0.00     0.015 A 
HETATM   12  C   UNL     1      -3.029  32.166   8.610  1.00  0.00     0.037 A 
HETATM   13  C   UNL     1      -3.502  32.997   7.606  1.00  0.00     0.068 A 
HETATM   14  C   UNL     1      -3.232  32.706   6.279  1.00  0.00     0.037 A 
HETATM   15  C   UNL     1      -2.496  31.582   5.960  1.00  0.00     0.015 A 
BRANCH  13  16
HETATM   16  O   UNL     1      -4.262  34.069   7.994  1.00  0.00    -0.351 OA
BRANCH  16  17
HETATM   17  C   UNL     1      -3.875  34.798   9.176  1.00  0.00     0.180 C 
BRANCH  17  18
HETATM   18  C   UNL     1      -2.580  35.559   8.935  1.00  0.00     0.065 C 
BRANCH  18  19
HETATM   19  C   UNL     1      -2.738  37.054   9.051  1.00  0.00    -0.056 A 
HETATM   20  C   UNL     1      -2.768  37.673  10.291  1.00  0.00     0.010 A 
HETATM   21  C   UNL     1      -2.909  39.045  10.402  1.00  0.00     0.043 A 
HETATM   22  C   UNL     1      -3.008  39.778   9.254  1.00  0.00     0.116 A 
HETATM   23  C   UNL     1      -2.978  39.217   8.011  1.00  0.00     0.043 A 
HETATM   24  F   UNL     1      -3.150  41.123   9.353  1.00  0.00    -0.206 F 
HETATM   25  C   UNL     1      -2.846  37.842   7.916  1.00  0.00     0.010 A 
ENDBRANCH  18  19
ENDBRANCH  17  18
ENDBRANCH  16  17
ENDBRANCH  13  16
ENDBRANCH   1  10
BRANCH   7  26
HETATM   26  N   UNL     1       0.920  30.509   6.769  1.00  0.00    -0.379 N 
HETATM   27  C   UNL     1       0.960  31.555   5.746  1.00  0.00     0.123 C 
HETATM   28  C   UNL     1       2.322  32.222   5.695  1.00  0.00     0.028 C 
HETATM   29  C   UNL     1       2.843  32.745   7.041  1.00  0.00    -0.045 C 
HETATM   30  C   UNL     1       2.062  33.986   7.477  1.00  0.00     0.015 C 
HETATM   31  C   UNL     1       4.323  33.107   6.899  1.00  0.00     0.015 C 
HETATM   32  C   UNL     1       2.677  31.636   8.089  1.00  0.00     0.028 C 
HETATM   33  C   UNL     1       1.295  31.001   8.099  1.00  0.00     0.123 C 
ENDBRANCH   7  26
BRANCH   6  34
HETATM   34  C   UNL     1       2.228  27.941   6.509  1.00  0.00     0.260 C 
BRANCH  34  35
HETATM   35  O   UNL     1       2.723  27.246   5.363  1.00  0.00    -0.360 OA
BRANCH  35  36
HETATM   36  C   UNL     1       3.517  27.925   4.352  1.00  0.00     0.051 C 
HETATM   37  C   UNL     1       4.658  28.695   4.989  1.00  0.00     0.045 C 
HETATM   38  C   UNL     1       2.664  28.844   3.500  1.00  0.00     0.045 C 
HETATM   39  C   UNL     1       4.028  26.759   3.535  1.00  0.00     0.045 C 
ENDBRANCH  35  36
ENDBRANCH  34  35
BRANCH  34  40
HETATM   40  C   UNL     1       2.616  27.235   7.804  1.00  0.00     0.208 C 
HETATM   41  O   UNL     1       3.494  26.294   7.647  1.00  0.00    -0.646 OA
HETATM   42  O   UNL     1       2.142  27.553   8.884  1.00  0.00    -0.646 OA
ENDBRANCH  34  40
ENDBRANCH   6  34
TORSDOF 10
ENDMDL
MODEL 8
REMARK VINA RESULT:    -6.311      3.939      9.474
REMARK INTER + INTRA:         -11.820
REMARK INTER:                  -9.544
REMARK INTRA:                  -2.277
REMARK UNBOUND:                -1.821
REMARK  10 active torsions:
REMARK  status: ('A' for Active; 'I' for Inactive)
REMARK    1  A    between atoms: C_8  and  O_27 
REMARK    2  A    between atoms: C_10  and  C_15 
REMARK    3  A    between atoms: C_11  and  C_23 
REMARK    4  A    between atoms: C_12  and  C_36 
REMARK    5  A    between atoms: C_12  and  C_14 
REMARK    6  A    between atoms: C_14  and  O_35 
REMARK    7  A    between atoms: C_20  and  C_23 
REMARK    8  A    between atoms: C_21  and  N_22 
REMARK    9  A    between atoms: C_23  and  O_27 
REMARK   10  A    between atoms: C_32  and  O_35 
ROOT
HETATM    1  C   UNL     1      -0.116  28.417   6.497  1.00  0.00     0.024 A 
HETATM    2  C   UNL     1      -1.131  27.456   6.612  1.00  0.00     0.018 A 
HETATM    3  N   UNL     1      -2.393  27.794   6.898  1.00  0.00    -0.362 N 
ATOM      4  HN  UNL     1      -3.104  27.069   6.994  1.00  0.00     0.165 HD
HETATM    5  C   UNL     1      -2.723  29.077   7.059  1.00  0.00     0.017 A 
HETATM    6  C   UNL     1      -1.764  30.119   7.000  1.00  0.00     0.031 A 
HETATM    7  C   UNL     1      -0.429  29.771   6.724  1.00  0.00     0.054 A 
HETATM    8  C   UNL     1      -4.185  29.338   7.277  1.00  0.00     0.069 C 
HETATM    9  C   UNL     1      -0.896  25.997   6.361  1.00  0.00     0.069 C 
ENDROOT
BRANCH   1  10
HETATM   10  C   UNL     1       1.212  27.964   5.974  1.00  0.00    -0.022 A 
HETATM   11  C   UNL     1       2.247  27.598   6.838  1.00  0.00     0.015 A 
HETATM   12  C   UNL     1       3.489  27.236   6.352  1.00  0.00     0.037 A 
HETATM   13  C   UNL     1       3.716  27.225   4.984  1.00  0.00     0.068 A 
HETATM   14  C   UNL     1       2.697  27.563   4.108  1.00  0.00     0.037 A 
HETATM   15  C   UNL     1       1.457  27.915   4.603  1.00  0.00     0.015 A 
BRANCH  13  16
HETATM   16  O   UNL     1       4.982  26.907   4.567  1.00  0.00    -0.351 OA
BRANCH  16  17
HETATM   17  C   UNL     1       5.643  25.775   5.168  1.00  0.00     0.180 C 
BRANCH  17  18
HETATM   18  C   UNL     1       6.191  24.845   4.097  1.00  0.00     0.065 C 
BRANCH  18  19
HETATM   19  C   UNL     1       5.176  24.490   3.041  1.00  0.00    -0.056 A 
HETATM   20  C   UNL     1       5.194  25.107   1.800  1.00  0.00     0.010 A 
HETATM   21  C   UNL     1       4.266  24.782   0.826  1.00  0.00     0.043 A 
HETATM   22  C   UNL     1       3.335  23.826   1.116  1.00  0.00     0.116 A 
HETATM   23  C   UNL     1       3.279  23.186   2.318  1.00  0.00     0.043 A 
HETATM   24  F   UNL     1       2.420  23.503   0.168  1.00  0.00    -0.206 F 
HETATM   25  C   UNL     1       4.208  23.529   3.286  1.00  0.00     0.010 A 
ENDBRANCH  18  19
ENDBRANCH  17  18
ENDBRANCH  16  17
ENDBRANCH  13  16
ENDBRANCH   1  10
BRANCH   7  26
HETATM   26  N   UNL     1       0.578  30.766   6.715  1.00  0.00    -0.379 N 
HETATM   27  C   UNL     1       0.559  31.868   5.751  1.00  0.00     0.123 C 
HETATM   28  C   UNL     1       1.966  32.320   5.406  1.00  0.00     0.028 C 
HETATM   29  C   UNL     1       2.859  32.652   6.609  1.00  0.00    -0.045 C 
HETATM   30  C   UNL     1       2.416  33.962   7.264  1.00  0.00     0.015 C 
HETATM   31  C   UNL     1       4.307  32.793   6.136  1.00  0.00     0.015 C 
HETATM   32  C   UNL     1       2.751  31.506   7.624  1.00  0.00     0.028 C 
HETATM   33  C   UNL     1       1.322  31.093   7.936  1.00  0.00     0.123 C 
ENDBRANCH   7  26
BRANCH   6  34
HETATM   34  C   UNL     1      -2.141  31.589   7.269  1.00  0.00     0.260 C 
BRANCH  34  35
HETATM   35  O   UNL     1      -2.702  31.773   8.571  1.00  0.00    -0.360 OA
BRANCH  35  36
HETATM   36  C   UNL     1      -2.071  32.643   9.550  1.00  0.00     0.051 C 
HETATM   37  C   UNL     1      -3.112  33.432  10.321  1.00  0.00     0.045 C 
HETATM   38  C   UNL     1      -1.070  33.577   8.900  1.00  0.00     0.045 C 
HETATM   39  C   UNL     1      -1.371  31.640  10.439  1.00  0.00     0.045 C 
ENDBRANCH  35  36
ENDBRANCH  34  35
BRANCH  34  40
HETATM   40  C   UNL     1      -3.101  32.042   6.175  1.00  0.00     0.208 C 
HETATM   41  O   UNL     1      -4.050  32.819   6.597  1.00  0.00    -0.646 OA
HETATM   42  O   UNL     1      -2.961  31.706   5.009  1.00  0.00    -0.646 OA
ENDBRANCH  34  40
ENDBRANCH   6  34
TORSDOF 10
ENDMDL
MODEL 9
REMARK VINA RESULT:    -6.303      2.238      3.085
REMARK INTER + INTRA:         -11.809
REMARK INTER:                  -9.235
REMARK INTRA:                  -2.574
REMARK UNBOUND:                -1.821
REMARK  10 active torsions:
REMARK  status: ('A' for Active; 'I' for Inactive)
REMARK    1  A    between atoms: C_8  and  O_27 
REMARK    2  A    between atoms: C_10  and  C_15 
REMARK    3  A    between atoms: C_11  and  C_23 
REMARK    4  A    between atoms: C_12  and  C_36 
REMARK    5  A    between atoms: C_12  and  C_14 
REMARK    6  A    between atoms: C_14  and  O_35 
REMARK    7  A    between atoms: C_20  and  C_23 
REMARK    8  A    between atoms: C_21  and  N_22 
REMARK    9  A    between atoms: C_23  and  O_27 
REMARK   10  A    between atoms: C_32  and  O_35 
ROOT
HETATM    1  C   UNL     1      -1.543  29.468   6.354  1.00  0.00     0.024 A 
HETATM    2  C   UNL     1      -2.338  28.334   6.138  1.00  0.00     0.018 A 
HETATM    3  N   UNL     1      -1.808  27.109   6.037  1.00  0.00    -0.362 N 
ATOM      4  HN  UNL     1      -2.412  26.307   5.862  1.00  0.00     0.165 HD
HETATM    5  C   UNL     1      -0.491  26.938   6.167  1.00  0.00     0.017 A 
HETATM    6  C   UNL     1       0.401  28.024   6.349  1.00  0.00     0.031 A 
HETATM    7  C   UNL     1      -0.145  29.318   6.431  1.00  0.00     0.054 A 
HETATM    8  C   UNL     1      -0.027  25.510   6.135  1.00  0.00     0.069 C 
HETATM    9  C   UNL     1      -3.835  28.395   6.070  1.00  0.00     0.069 C 
ENDROOT
BRANCH   1  10
HETATM   10  C   UNL     1      -2.242  30.758   6.657  1.00  0.00    -0.022 A 
HETATM   11  C   UNL     1      -2.437  31.187   7.972  1.00  0.00     0.015 A 
HETATM   12  C   UNL     1      -3.132  32.349   8.248  1.00  0.00     0.037 A 
HETATM   13  C   UNL     1      -3.639  33.111   7.207  1.00  0.00     0.068 A 
HETATM   14  C   UNL     1      -3.438  32.716   5.894  1.00  0.00     0.037 A 
HETATM   15  C   UNL     1      -2.735  31.558   5.628  1.00  0.00     0.015 A 
BRANCH  13  16
HETATM   16  O   UNL     1      -4.364  34.224   7.547  1.00  0.00    -0.351 OA
BRANCH  16  17
HETATM   17  C   UNL     1      -4.198  34.777   8.869  1.00  0.00     0.180 C 
BRANCH  17  18
HETATM   18  C   UNL     1      -3.100  35.831   8.873  1.00  0.00     0.065 C 
BRANCH  18  19
HETATM   19  C   UNL     1      -1.988  35.526   9.844  1.00  0.00    -0.056 A 
HETATM   20  C   UNL     1      -0.807  34.943   9.413  1.00  0.00     0.010 A 
HETATM   21  C   UNL     1       0.219  34.665  10.300  1.00  0.00     0.043 A 
HETATM   22  C   UNL     1       0.041  34.992  11.614  1.00  0.00     0.116 A 
HETATM   23  C   UNL     1      -1.099  35.574  12.086  1.00  0.00     0.043 A 
HETATM   24  F   UNL     1       1.040  34.721  12.490  1.00  0.00    -0.206 F 
HETATM   25  C   UNL     1      -2.119  35.836  11.188  1.00  0.00     0.010 A 
ENDBRANCH  18  19
ENDBRANCH  17  18
ENDBRANCH  16  17
ENDBRANCH  13  16
ENDBRANCH   1  10
BRANCH   7  26
HETATM   26  N   UNL     1       0.707  30.443   6.550  1.00  0.00    -0.379 N 
HETATM   27  C   UNL     1       0.755  31.482   5.521  1.00  0.00     0.123 C 
HETATM   28  C   UNL     1       2.135  32.108   5.436  1.00  0.00     0.028 C 
HETATM   29  C   UNL     1       2.703  32.620   6.767  1.00  0.00    -0.045 C 
HETATM   30  C   UNL     1       1.970  33.886   7.215  1.00  0.00     0.015 C 
HETATM   31  C   UNL     1       4.189  32.937   6.589  1.00  0.00     0.015 C 
HETATM   32  C   UNL     1       2.527  31.521   7.823  1.00  0.00     0.028 C 
HETATM   33  C   UNL     1       1.128  30.928   7.869  1.00  0.00     0.123 C 
ENDBRANCH   7  26
BRANCH   6  34
HETATM   34  C   UNL     1       1.927  27.822   6.413  1.00  0.00     0.260 C 
BRANCH  34  35
HETATM   35  O   UNL     1       2.421  27.068   5.303  1.00  0.00    -0.360 OA
BRANCH  35  36
HETATM   36  C   UNL     1       3.318  27.662   4.326  1.00  0.00     0.051 C 
HETATM   37  C   UNL     1       3.871  26.605   3.388  1.00  0.00     0.045 C 
HETATM   38  C   UNL     1       4.446  28.421   4.996  1.00  0.00     0.045 C 
HETATM   39  C   UNL     1       2.390  28.611   3.601  1.00  0.00     0.045 C 
ENDBRANCH  35  36
ENDBRANCH  34  35
BRANCH  34  40
HETATM   40  C   UNL     1       2.263  27.151   7.741  1.00  0.00     0.208 C 
HETATM   41  O   UNL     1       3.107  26.172   7.636  1.00  0.00    -0.646 OA
HETATM   42  O   UNL     1       1.781  27.527   8.798  1.00  0.00    -0.646 OA
ENDBRANCH  34  40
ENDBRANCH   6  34
TORSDOF 10
ENDMDL
MODEL 10
REMARK VINA RESULT:    -6.245      3.808     10.194
REMARK INTER + INTRA:         -11.716
REMARK INTER:                  -9.794
REMARK INTRA:                  -1.922
REMARK UNBOUND:                -1.821
REMARK  10 active torsions:
REMARK  status: ('A' for Active; 'I' for Inactive)
REMARK    1  A    between atoms: C_8  and  O_27 
REMARK    2  A    between atoms: C_10  and  C_15 
REMARK    3  A    between atoms: C_11  and  C_23 
REMARK    4  A    between atoms: C_12  and  C_36 
REMARK    5  A    between atoms: C_12  and  C_14 
REMARK    6  A    between atoms: C_14  and  O_35 
REMARK    7  A    between atoms: C_20  and  C_23 
REMARK    8  A    between atoms: C_21  and  N_22 
REMARK    9  A    between atoms: C_23  and  O_27 
REMARK   10  A    between atoms: C_32  and  O_35 
ROOT
HETATM    1  C   UNL     1       0.384  32.680   7.605  1.00  0.00     0.024 A 
HETATM    2  C   UNL     1       1.054  33.744   8.225  1.00  0.00     0.018 A 
HETATM    3  N   UNL     1       0.423  34.598   9.039  1.00  0.00    -0.362 N 
ATOM      4  HN  UNL     1       0.935  35.373   9.459  1.00  0.00     0.165 HD
HETATM    5  C   UNL     1      -0.875  34.436   9.300  1.00  0.00     0.017 A 
HETATM    6  C   UNL     1      -1.650  33.415   8.695  1.00  0.00     0.031 A 
HETATM    7  C   UNL     1      -0.999  32.527   7.818  1.00  0.00     0.054 A 
HETATM    8  C   UNL     1      -1.448  35.394  10.304  1.00  0.00     0.069 C 
HETATM    9  C   UNL     1       2.530  33.966   8.078  1.00  0.00     0.069 C 
ENDROOT
BRANCH   1  10
HETATM   10  C   UNL     1       1.214  31.664   6.882  1.00  0.00    -0.022 A 
HETATM   11  C   UNL     1       1.720  30.539   7.537  1.00  0.00     0.015 A 
HETATM   12  C   UNL     1       2.532  29.634   6.880  1.00  0.00     0.037 A 
HETATM   13  C   UNL     1       2.846  29.836   5.545  1.00  0.00     0.068 A 
HETATM   14  C   UNL     1       2.338  30.933   4.870  1.00  0.00     0.037 A 
HETATM   15  C   UNL     1       1.521  31.827   5.533  1.00  0.00     0.015 A 
BRANCH  13  16
HETATM   16  O   UNL     1       3.698  28.932   4.964  1.00  0.00    -0.351 OA
BRANCH  16  17
HETATM   17  C   UNL     1       3.324  28.346   3.701  1.00  0.00     0.180 C 
BRANCH  17  18
HETATM   18  C   UNL     1       3.081  26.852   3.855  1.00  0.00     0.065 C 
BRANCH  18  19
HETATM   19  C   UNL     1       4.277  26.014   3.480  1.00  0.00    -0.056 A 
HETATM   20  C   UNL     1       4.458  25.574   2.178  1.00  0.00     0.010 A 
HETATM   21  C   UNL     1       5.556  24.808   1.829  1.00  0.00     0.043 A 
HETATM   22  C   UNL     1       6.466  24.504   2.800  1.00  0.00     0.116 A 
HETATM   23  C   UNL     1       6.337  24.918   4.093  1.00  0.00     0.043 A 
HETATM   24  F   UNL     1       7.544  23.751   2.467  1.00  0.00    -0.206 F 
HETATM   25  C   UNL     1       5.228  25.676   4.430  1.00  0.00     0.010 A 
ENDBRANCH  18  19
ENDBRANCH  17  18
ENDBRANCH  16  17
ENDBRANCH  13  16
ENDBRANCH   1  10
BRANCH   7  26
HETATM   26  N   UNL     1      -1.739  31.529   7.140  1.00  0.00    -0.379 N 
HETATM   27  C   UNL     1      -1.989  31.604   5.699  1.00  0.00     0.123 C 
HETATM   28  C   UNL     1      -3.315  30.961   5.337  1.00  0.00     0.028 C 
HETATM   29  C   UNL     1      -3.511  29.531   5.859  1.00  0.00    -0.045 C 
HETATM   30  C   UNL     1      -2.629  28.548   5.085  1.00  0.00     0.015 C 
HETATM   31  C   UNL     1      -4.978  29.130   5.688  1.00  0.00     0.015 C 
HETATM   32  C   UNL     1      -3.134  29.502   7.346  1.00  0.00     0.028 C 
HETATM   33  C   UNL     1      -1.797  30.157   7.656  1.00  0.00     0.123 C 
ENDBRANCH   7  26
BRANCH   6  34
HETATM   34  C   UNL     1      -3.166  33.289   8.940  1.00  0.00     0.260 C 
BRANCH  34  35
HETATM   35  O   UNL     1      -3.853  34.524   8.724  1.00  0.00    -0.360 OA
BRANCH  35  36
HETATM   36  C   UNL     1      -4.988  34.609   7.819  1.00  0.00     0.051 C 
HETATM   37  C   UNL     1      -5.302  33.252   7.218  1.00  0.00     0.045 C 
HETATM   38  C   UNL     1      -4.753  35.633   6.726  1.00  0.00     0.045 C 
HETATM   39  C   UNL     1      -6.086  35.065   8.754  1.00  0.00     0.045 C 
ENDBRANCH  35  36
ENDBRANCH  34  35
BRANCH  34  40
HETATM   40  C   UNL     1      -3.377  32.770  10.358  1.00  0.00     0.208 C 
HETATM   41  O   UNL     1      -2.659  31.730  10.650  1.00  0.00    -0.646 OA
HETATM   42  O   UNL     1      -4.147  33.309  11.139  1.00  0.00    -0.646 OA
ENDBRANCH  34  40
ENDBRANCH   6  34
TORSDOF 10
ENDMDL
MODEL 11
REMARK VINA RESULT:    -6.244      2.724      8.963
REMARK INTER + INTRA:         -11.716
REMARK INTER:                  -8.879
REMARK INTRA:                  -2.837
REMARK UNBOUND:                -1.821
REMARK  10 active torsions:
REMARK  status: ('A' for Active; 'I' for Inactive)
REMARK    1  A    between atoms: C_8  and  O_27 
REMARK    2  A    between atoms: C_10  and  C_15 
REMARK    3  A    between atoms: C_11  and  C_23 
REMARK    4  A    between atoms: C_12  and  C_36 
REMARK    5  A    between atoms: C_12  and  C_14 
REMARK    6  A    between atoms: C_14  and  O_35 
REMARK    7  A    between atoms: C_20  and  C_23 
REMARK    8  A    between atoms: C_21  and  N_22 
REMARK    9  A    between atoms: C_23  and  O_27 
REMARK   10  A    between atoms: C_32  and  O_35 
ROOT
HETATM    1  C   UNL     1      -0.625  32.826   7.909  1.00  0.00     0.024 A 
HETATM    2  C   UNL     1       0.185  33.751   8.582  1.00  0.00     0.018 A 
HETATM    3  N   UNL     1      -0.333  34.711   9.357  1.00  0.00    -0.362 N 
ATOM      4  HN  UNL     1       0.283  35.380   9.817  1.00  0.00     0.165 HD
HETATM    5  C   UNL     1      -1.654  34.793   9.527  1.00  0.00     0.017 A 
HETATM    6  C   UNL     1      -2.560  33.928   8.862  1.00  0.00     0.031 A 
HETATM    7  C   UNL     1      -2.025  32.932   8.025  1.00  0.00     0.054 A 
HETATM    8  C   UNL     1      -2.108  35.845  10.497  1.00  0.00     0.069 C 
HETATM    9  C   UNL     1       1.683  33.697   8.537  1.00  0.00     0.069 C 
ENDROOT
BRANCH   1  10
HETATM   10  C   UNL     1       0.051  31.671   7.237  1.00  0.00    -0.022 A 
HETATM   11  C   UNL     1       0.296  30.476   7.917  1.00  0.00     0.015 A 
HETATM   12  C   UNL     1       0.971  29.433   7.311  1.00  0.00     0.037 A 
HETATM   13  C   UNL     1       1.407  29.566   6.001  1.00  0.00     0.068 A 
HETATM   14  C   UNL     1       1.155  30.735   5.300  1.00  0.00     0.037 A 
HETATM   15  C   UNL     1       0.473  31.767   5.913  1.00  0.00     0.015 A 
BRANCH  13  16
HETATM   16  O   UNL     1       2.115  28.519   5.473  1.00  0.00    -0.351 OA
BRANCH  16  17
HETATM   17  C   UNL     1       3.215  27.978   6.233  1.00  0.00     0.180 C 
BRANCH  17  18
HETATM   18  C   UNL     1       4.529  28.608   5.796  1.00  0.00     0.065 C 
BRANCH  18  19
HETATM   19  C   UNL     1       4.563  30.103   5.987  1.00  0.00    -0.056 A 
HETATM   20  C   UNL     1       4.447  30.663   7.249  1.00  0.00     0.010 A 
HETATM   21  C   UNL     1       4.482  32.035   7.429  1.00  0.00     0.043 A 
HETATM   22  C   UNL     1       4.645  32.825   6.328  1.00  0.00     0.116 A 
HETATM   23  C   UNL     1       4.770  32.323   5.066  1.00  0.00     0.043 A 
HETATM   24  F   UNL     1       4.677  34.171   6.494  1.00  0.00    -0.206 F 
HETATM   25  C   UNL     1       4.723  30.950   4.901  1.00  0.00     0.010 A 
ENDBRANCH  18  19
ENDBRANCH  17  18
ENDBRANCH  16  17
ENDBRANCH  13  16
ENDBRANCH   1  10
BRANCH   7  26
HETATM   26  N   UNL     1      -2.887  32.083   7.291  1.00  0.00    -0.379 N 
HETATM   27  C   UNL     1      -2.949  32.132   5.829  1.00  0.00     0.123 C 
HETATM   28  C   UNL     1      -4.336  31.774   5.326  1.00  0.00     0.028 C 
HETATM   29  C   UNL     1      -4.904  30.453   5.860  1.00  0.00    -0.045 C 
HETATM   30  C   UNL     1      -4.182  29.260   5.229  1.00  0.00     0.015 C 
HETATM   31  C   UNL     1      -6.394  30.373   5.522  1.00  0.00     0.015 C 
HETATM   32  C   UNL     1      -4.713  30.424   7.383  1.00  0.00     0.028 C 
HETATM   33  C   UNL     1      -3.308  30.788   7.835  1.00  0.00     0.123 C 
ENDBRANCH   7  26
BRANCH   6  34
HETATM   34  C   UNL     1      -4.086  34.085   9.002  1.00  0.00     0.260 C 
BRANCH  34  35
HETATM   35  O   UNL     1      -4.513  35.433   8.789  1.00  0.00    -0.360 OA
BRANCH  35  36
HETATM   36  C   UNL     1      -5.374  35.785   7.673  1.00  0.00     0.051 C 
HETATM   37  C   UNL     1      -4.574  36.427   6.555  1.00  0.00     0.045 C 
HETATM   38  C   UNL     1      -6.504  36.697   8.108  1.00  0.00     0.045 C 
HETATM   39  C   UNL     1      -5.906  34.431   7.262  1.00  0.00     0.045 C 
ENDBRANCH  35  36
ENDBRANCH  34  35
BRANCH  34  40
HETATM   40  C   UNL     1      -4.492  33.579  10.382  1.00  0.00     0.208 C 
HETATM   41  O   UNL     1      -5.312  34.364  11.009  1.00  0.00    -0.646 OA
HETATM   42  O   UNL     1      -4.083  32.520  10.831  1.00  0.00    -0.646 OA
ENDBRANCH  34  40
ENDBRANCH   6  34
TORSDOF 10
ENDMDL
MODEL 12
REMARK VINA RESULT:    -6.244      3.750      8.218
REMARK INTER + INTRA:         -11.714
REMARK INTER:                  -9.035
REMARK INTRA:                  -2.680
REMARK UNBOUND:                -1.821
REMARK  10 active torsions:
REMARK  status: ('A' for Active; 'I' for Inactive)
REMARK    1  A    between atoms: C_8  and  O_27 
REMARK    2  A    between atoms: C_10  and  C_15 
REMARK    3  A    between atoms: C_11  and  C_23 
REMARK    4  A    between atoms: C_12  and  C_36 
REMARK    5  A    between atoms: C_12  and  C_14 
REMARK    6  A    between atoms: C_14  and  O_35 
REMARK    7  A    between atoms: C_20  and  C_23 
REMARK    8  A    between atoms: C_21  and  N_22 
REMARK    9  A    between atoms: C_23  and  O_27 
REMARK   10  A    between atoms: C_32  and  O_35 
ROOT
HETATM    1  C   UNL     1      -1.641  30.157   6.041  1.00  0.00     0.024 A 
HETATM    2  C   UNL     1      -1.266  28.943   5.448  1.00  0.00     0.018 A 
HETATM    3  N   UNL     1      -2.169  28.100   4.934  1.00  0.00    -0.362 N 
ATOM      4  HN  UNL     1      -1.865  27.216   4.527  1.00  0.00     0.165 HD
HETATM    5  C   UNL     1      -3.465  28.415   4.954  1.00  0.00     0.017 A 
HETATM    6  C   UNL     1      -3.949  29.600   5.563  1.00  0.00     0.031 A 
HETATM    7  C   UNL     1      -3.009  30.481   6.129  1.00  0.00     0.054 A 
HETATM    8  C   UNL     1      -4.370  27.438   4.259  1.00  0.00     0.069 C 
HETATM    9  C   UNL     1       0.166  28.530   5.287  1.00  0.00     0.069 C 
ENDROOT
BRANCH   1  10
HETATM   10  C   UNL     1      -0.552  31.120   6.399  1.00  0.00    -0.022 A 
HETATM   11  C   UNL     1      -0.118  31.269   7.719  1.00  0.00     0.015 A 
HETATM   12  C   UNL     1       0.848  32.199   8.054  1.00  0.00     0.037 A 
HETATM   13  C   UNL     1       1.406  32.996   7.066  1.00  0.00     0.068 A 
HETATM   14  C   UNL     1       1.006  32.851   5.747  1.00  0.00     0.037 A 
HETATM   15  C   UNL     1       0.047  31.913   5.422  1.00  0.00     0.015 A 
BRANCH  13  16
HETATM   16  O   UNL     1       2.319  33.935   7.468  1.00  0.00    -0.351 OA
BRANCH  16  17
HETATM   17  C   UNL     1       3.648  33.499   7.818  1.00  0.00     0.180 C 
BRANCH  17  18
HETATM   18  C   UNL     1       4.448  33.165   6.567  1.00  0.00     0.065 C 
BRANCH  18  19
HETATM   19  C   UNL     1       4.378  31.708   6.189  1.00  0.00    -0.056 A 
HETATM   20  C   UNL     1       4.336  31.319   4.859  1.00  0.00     0.010 A 
HETATM   21  C   UNL     1       4.276  29.982   4.507  1.00  0.00     0.043 A 
HETATM   22  C   UNL     1       4.270  29.051   5.506  1.00  0.00     0.116 A 
HETATM   23  C   UNL     1       4.317  29.382   6.828  1.00  0.00     0.043 A 
HETATM   24  F   UNL     1       4.209  27.739   5.170  1.00  0.00    -0.206 F 
HETATM   25  C   UNL     1       4.367  30.724   7.165  1.00  0.00     0.010 A 
ENDBRANCH  18  19
ENDBRANCH  17  18
ENDBRANCH  16  17
ENDBRANCH  13  16
ENDBRANCH   1  10
BRANCH   7  26
HETATM   26  N   UNL     1      -3.444  31.647   6.803  1.00  0.00    -0.379 N 
HETATM   27  C   UNL     1      -3.358  31.768   8.259  1.00  0.00     0.123 C 
HETATM   28  C   UNL     1      -4.475  32.639   8.805  1.00  0.00     0.028 C 
HETATM   29  C   UNL     1      -4.613  34.016   8.141  1.00  0.00    -0.045 C 
HETATM   30  C   UNL     1      -3.463  34.934   8.560  1.00  0.00     0.015 C 
HETATM   31  C   UNL     1      -5.940  34.648   8.567  1.00  0.00     0.015 C 
HETATM   32  C   UNL     1      -4.593  33.825   6.619  1.00  0.00     0.028 C 
HETATM   33  C   UNL     1      -3.454  32.947   6.124  1.00  0.00     0.123 C 
ENDBRANCH   7  26
BRANCH   6  34
HETATM   34  C   UNL     1      -5.455  29.912   5.653  1.00  0.00     0.260 C 
BRANCH  34  35
HETATM   35  O   UNL     1      -6.212  28.795   6.126  1.00  0.00    -0.360 OA
BRANCH  35  36
HETATM   36  C   UNL     1      -6.811  28.795   7.450  1.00  0.00     0.051 C 
HETATM   37  C   UNL     1      -7.076  30.212   7.924  1.00  0.00     0.045 C 
HETATM   38  C   UNL     1      -5.948  28.053   8.451  1.00  0.00     0.045 C 
HETATM   39  C   UNL     1      -8.102  28.048   7.198  1.00  0.00     0.045 C 
ENDBRANCH  35  36
ENDBRANCH  34  35
BRANCH  34  40
HETATM   40  C   UNL     1      -5.929  30.370   4.278  1.00  0.00     0.208 C 
HETATM   41  O   UNL     1      -6.997  29.763   3.861  1.00  0.00    -0.646 OA
HETATM   42  O   UNL     1      -5.351  31.243   3.649  1.00  0.00    -0.646 OA
ENDBRANCH  34  40
ENDBRANCH   6  34
TORSDOF 10
ENDMDL
MODEL 13
REMARK VINA RESULT:    -6.212      3.816     10.009
REMARK INTER + INTRA:         -11.664
REMARK INTER:                  -9.488
REMARK INTRA:                  -2.176
REMARK UNBOUND:                -1.821
REMARK  10 active torsions:
REMARK  status: ('A' for Active; 'I' for Inactive)
REMARK    1  A    between atoms: C_8  and  O_27 
REMARK    2  A    between atoms: C_10  and  C_15 
REMARK    3  A    between atoms: C_11  and  C_23 
REMARK    4  A    between atoms: C_12  and  C_36 
REMARK    5  A    between atoms: C_12  and  C_14 
REMARK    6  A    between atoms: C_14  and  O_35 
REMARK    7  A    between atoms: C_20  and  C_23 
REMARK    8  A    between atoms: C_21  and  N_22 
REMARK    9  A    between atoms: C_23  and  O_27 
REMARK   10  A    between atoms: C_32  and  O_35 
ROOT
HETATM    1  C   UNL     1       2.583  31.774   7.389  1.00  0.00     0.024 A 
HETATM    2  C   UNL     1       3.023  33.105   7.352  1.00  0.00     0.018 A 
HETATM    3  N   UNL     1       2.245  34.118   7.750  1.00  0.00    -0.362 N 
ATOM      4  HN  UNL     1       2.588  35.076   7.692  1.00  0.00     0.165 HD
HETATM    5  C   UNL     1       1.020  33.875   8.221  1.00  0.00     0.017 A 
HETATM    6  C   UNL     1       0.469  32.569   8.264  1.00  0.00     0.031 A 
HETATM    7  C   UNL     1       1.272  31.501   7.824  1.00  0.00     0.054 A 
HETATM    8  C   UNL     1       0.281  35.079   8.729  1.00  0.00     0.069 C 
HETATM    9  C   UNL     1       4.411  33.487   6.930  1.00  0.00     0.069 C 
ENDROOT
BRANCH   1  10
HETATM   10  C   UNL     1       3.593  30.701   7.121  1.00  0.00    -0.022 A 
HETATM   11  C   UNL     1       3.743  30.147   5.847  1.00  0.00     0.015 A 
HETATM   12  C   UNL     1       4.636  29.118   5.616  1.00  0.00     0.037 A 
HETATM   13  C   UNL     1       5.405  28.628   6.661  1.00  0.00     0.068 A 
HETATM   14  C   UNL     1       5.288  29.177   7.927  1.00  0.00     0.037 A 
HETATM   15  C   UNL     1       4.399  30.211   8.146  1.00  0.00     0.015 A 
BRANCH  13  16
HETATM   16  O   UNL     1       6.233  27.573   6.380  1.00  0.00    -0.351 OA
BRANCH  16  17
HETATM   17  C   UNL     1       5.704  26.235   6.482  1.00  0.00     0.180 C 
BRANCH  17  18
HETATM   18  C   UNL     1       6.437  25.296   5.536  1.00  0.00     0.065 C 
BRANCH  18  19
HETATM   19  C   UNL     1       5.812  25.225   4.167  1.00  0.00    -0.056 A 
HETATM   20  C   UNL     1       6.451  24.570   3.125  1.00  0.00     0.010 A 
HETATM   21  C   UNL     1       5.878  24.499   1.867  1.00  0.00     0.043 A 
HETATM   22  C   UNL     1       4.658  25.082   1.680  1.00  0.00     0.116 A 
HETATM   23  C   UNL     1       3.986  25.732   2.673  1.00  0.00     0.043 A 
HETATM   24  F   UNL     1       4.091  25.020   0.450  1.00  0.00    -0.206 F 
HETATM   25  C   UNL     1       4.576  25.804   3.923  1.00  0.00     0.010 A 
ENDBRANCH  18  19
ENDBRANCH  17  18
ENDBRANCH  16  17
ENDBRANCH  13  16
ENDBRANCH   1  10
BRANCH   7  26
HETATM   26  N   UNL     1       0.748  30.186   7.789  1.00  0.00    -0.379 N 
HETATM   27  C   UNL     1       0.335  29.558   6.533  1.00  0.00     0.123 C 
HETATM   28  C   UNL     1      -0.810  28.587   6.755  1.00  0.00     0.028 C 
HETATM   29  C   UNL     1      -0.572  27.535   7.847  1.00  0.00    -0.045 C 
HETATM   30  C   UNL     1       0.447  26.493   7.380  1.00  0.00     0.015 C 
HETATM   31  C   UNL     1      -1.895  26.836   8.167  1.00  0.00     0.015 C 
HETATM   32  C   UNL     1      -0.044  28.248   9.099  1.00  0.00     0.028 C 
HETATM   33  C   UNL     1       1.103  29.209   8.823  1.00  0.00     0.123 C 
ENDBRANCH   7  26
BRANCH   6  34
HETATM   34  C   UNL     1      -0.976  32.310   8.732  1.00  0.00     0.260 C 
BRANCH  34  35
HETATM   35  O   UNL     1      -1.934  33.030   7.952  1.00  0.00    -0.360 OA
BRANCH  35  36
HETATM   36  C   UNL     1      -3.016  32.344   7.265  1.00  0.00     0.051 C 
HETATM   37  C   UNL     1      -3.465  31.123   8.046  1.00  0.00     0.045 C 
HETATM   38  C   UNL     1      -2.621  31.956   5.853  1.00  0.00     0.045 C 
HETATM   39  C   UNL     1      -4.088  33.411   7.248  1.00  0.00     0.045 C 
ENDBRANCH  35  36
ENDBRANCH  34  35
BRANCH  34  40
HETATM   40  C   UNL     1      -1.069  32.674  10.210  1.00  0.00     0.208 C 
HETATM   41  O   UNL     1      -0.117  32.175  10.935  1.00  0.00    -0.646 OA
HETATM   42  O   UNL     1      -1.961  33.384  10.649  1.00  0.00    -0.646 OA
ENDBRANCH  34  40
ENDBRANCH   6  34
TORSDOF 10
ENDMDL
MODEL 14
REMARK VINA RESULT:    -6.199      4.203     10.543
REMARK INTER + INTRA:         -11.643
REMARK INTER:                  -9.520
REMARK INTRA:                  -2.123
REMARK UNBOUND:                -1.821
REMARK  10 active torsions:
REMARK  status: ('A' for Active; 'I' for Inactive)
REMARK    1  A    between atoms: C_8  and  O_27 
REMARK    2  A    between atoms: C_10  and  C_15 
REMARK    3  A    between atoms: C_11  and  C_23 
REMARK    4  A    between atoms: C_12  and  C_36 
REMARK    5  A    between atoms: C_12  and  C_14 
REMARK    6  A    between atoms: C_14  and  O_35 
REMARK    7  A    between atoms: C_20  and  C_23 
REMARK    8  A    between atoms: C_21  and  N_22 
REMARK    9  A    between atoms: C_23  and  O_27 
REMARK   10  A    between atoms: C_32  and  O_35 
ROOT
HETATM    1  C   UNL     1       2.824  29.997   5.726  1.00  0.00     0.024 A 
HETATM    2  C   UNL     1       3.550  31.172   5.490  1.00  0.00     0.018 A 
HETATM    3  N   UNL     1       3.201  32.341   6.039  1.00  0.00    -0.362 N 
ATOM      4  HN  UNL     1       3.740  33.182   5.833  1.00  0.00     0.165 HD
HETATM    5  C   UNL     1       2.149  32.407   6.858  1.00  0.00     0.017 A 
HETATM    6  C   UNL     1       1.328  31.284   7.130  1.00  0.00     0.031 A 
HETATM    7  C   UNL     1       1.674  30.056   6.536  1.00  0.00     0.054 A 
HETATM    8  C   UNL     1       1.917  33.748   7.491  1.00  0.00     0.069 C 
HETATM    9  C   UNL     1       4.802  31.198   4.663  1.00  0.00     0.069 C 
ENDROOT
BRANCH   1  10
HETATM   10  C   UNL     1       3.409  28.709   5.235  1.00  0.00    -0.022 A 
HETATM   11  C   UNL     1       2.975  28.120   4.045  1.00  0.00     0.015 A 
HETATM   12  C   UNL     1       3.477  26.902   3.625  1.00  0.00     0.037 A 
HETATM   13  C   UNL     1       4.435  26.254   4.390  1.00  0.00     0.068 A 
HETATM   14  C   UNL     1       4.895  26.830   5.563  1.00  0.00     0.037 A 
HETATM   15  C   UNL     1       4.393  28.050   5.969  1.00  0.00     0.015 A 
BRANCH  13  16
HETATM   16  O   UNL     1       4.854  25.026   3.948  1.00  0.00    -0.351 OA
BRANCH  16  17
HETATM   17  C   UNL     1       6.147  24.925   3.316  1.00  0.00     0.180 C 
BRANCH  17  18
HETATM   18  C   UNL     1       6.005  24.947   1.802  1.00  0.00     0.065 C 
BRANCH  18  19
HETATM   19  C   UNL     1       4.985  23.964   1.286  1.00  0.00    -0.056 A 
HETATM   20  C   UNL     1       5.236  22.601   1.305  1.00  0.00     0.010 A 
HETATM   21  C   UNL     1       4.301  21.695   0.836  1.00  0.00     0.043 A 
HETATM   22  C   UNL     1       3.115  22.178   0.364  1.00  0.00     0.116 A 
HETATM   23  C   UNL     1       2.817  23.509   0.331  1.00  0.00     0.043 A 
HETATM   24  F   UNL     1       2.194  21.298  -0.100  1.00  0.00    -0.206 F 
HETATM   25  C   UNL     1       3.766  24.404   0.793  1.00  0.00     0.010 A 
ENDBRANCH  18  19
ENDBRANCH  17  18
ENDBRANCH  16  17
ENDBRANCH  13  16
ENDBRANCH   1  10
BRANCH   7  26
HETATM   26  N   UNL     1       0.852  28.919   6.726  1.00  0.00    -0.379 N 
HETATM   27  C   UNL     1       0.764  28.244   8.022  1.00  0.00     0.123 C 
HETATM   28  C   UNL     1       0.506  26.758   7.851  1.00  0.00     0.028 C 
HETATM   29  C   UNL     1      -0.692  26.403   6.959  1.00  0.00    -0.045 C 
HETATM   30  C   UNL     1      -2.008  26.723   7.669  1.00  0.00     0.015 C 
HETATM   31  C   UNL     1      -0.648  24.908   6.633  1.00  0.00     0.015 C 
HETATM   32  C   UNL     1      -0.592  27.220   5.664  1.00  0.00     0.028 C 
HETATM   33  C   UNL     1      -0.334  28.702   5.890  1.00  0.00     0.123 C 
ENDBRANCH   7  26
BRANCH   6  34
HETATM   34  C   UNL     1       0.068  31.391   8.010  1.00  0.00     0.260 C 
BRANCH  34  35
HETATM   35  O   UNL     1      -0.869  32.342   7.499  1.00  0.00    -0.360 OA
BRANCH  35  36
HETATM   36  C   UNL     1      -2.235  31.960   7.179  1.00  0.00     0.051 C 
HETATM   37  C   UNL     1      -2.406  31.771   5.683  1.00  0.00     0.045 C 
HETATM   38  C   UNL     1      -3.233  32.973   7.704  1.00  0.00     0.045 C 
HETATM   39  C   UNL     1      -2.363  30.647   7.918  1.00  0.00     0.045 C 
ENDBRANCH  35  36
ENDBRANCH  34  35
BRANCH  34  40
HETATM   40  C   UNL     1       0.506  31.741   9.428  1.00  0.00     0.208 C 
HETATM   41  O   UNL     1      -0.224  32.651   9.995  1.00  0.00    -0.646 OA
HETATM   42  O   UNL     1       1.453  31.191   9.970  1.00  0.00    -0.646 OA
ENDBRANCH  34  40
ENDBRANCH   6  34
TORSDOF 10
ENDMDL
MODEL 15
REMARK VINA RESULT:    -6.120      4.571     11.141
REMARK INTER + INTRA:         -11.519
REMARK INTER:                  -9.621
REMARK INTRA:                  -1.897
REMARK UNBOUND:                -1.821
REMARK  10 active torsions:
REMARK  status: ('A' for Active; 'I' for Inactive)
REMARK    1  A    between atoms: C_8  and  O_27 
REMARK    2  A    between atoms: C_10  and  C_15 
REMARK    3  A    between atoms: C_11  and  C_23 
REMARK    4  A    between atoms: C_12  and  C_36 
REMARK    5  A    between atoms: C_12  and  C_14 
REMARK    6  A    between atoms: C_14  and  O_35 
REMARK    7  A    between atoms: C_20  and  C_23 
REMARK    8  A    between atoms: C_21  and  N_22 
REMARK    9  A    between atoms: C_23  and  O_27 
REMARK   10  A    between atoms: C_32  and  O_35 
ROOT
HETATM    1  C   UNL     1       2.750  30.287   5.737  1.00  0.00     0.024 A 
HETATM    2  C   UNL     1       3.425  31.501   5.545  1.00  0.00     0.018 A 
HETATM    3  N   UNL     1       3.019  32.635   6.127  1.00  0.00    -0.362 N 
ATOM      4  HN  UNL     1       3.521  33.505   5.952  1.00  0.00     0.165 HD
HETATM    5  C   UNL     1       1.959  32.628   6.937  1.00  0.00     0.017 A 
HETATM    6  C   UNL     1       1.187  31.462   7.167  1.00  0.00     0.031 A 
HETATM    7  C   UNL     1       1.592  30.270   6.538  1.00  0.00     0.054 A 
HETATM    8  C   UNL     1       1.661  33.937   7.610  1.00  0.00     0.069 C 
HETATM    9  C   UNL     1       4.680  31.608   4.732  1.00  0.00     0.069 C 
ENDROOT
BRANCH   1  10
HETATM   10  C   UNL     1       3.396  29.043   5.213  1.00  0.00    -0.022 A 
HETATM   11  C   UNL     1       3.027  28.495   3.982  1.00  0.00     0.015 A 
HETATM   12  C   UNL     1       3.585  27.315   3.528  1.00  0.00     0.037 A 
HETATM   13  C   UNL     1       4.536  26.663   4.299  1.00  0.00     0.068 A 
HETATM   14  C   UNL     1       4.933  27.200   5.513  1.00  0.00     0.037 A 
HETATM   15  C   UNL     1       4.375  28.383   5.954  1.00  0.00     0.015 A 
BRANCH  13  16
HETATM   16  O   UNL     1       5.013  25.472   3.819  1.00  0.00    -0.351 OA
BRANCH  16  17
HETATM   17  C   UNL     1       6.295  25.004   4.285  1.00  0.00     0.180 C 
BRANCH  17  18
HETATM   18  C   UNL     1       6.566  23.594   3.783  1.00  0.00     0.065 C 
BRANCH  18  19
HETATM   19  C   UNL     1       7.687  23.526   2.778  1.00  0.00    -0.056 A 
HETATM   20  C   UNL     1       8.973  23.185   3.166  1.00  0.00     0.010 A 
HETATM   21  C   UNL     1      10.004  23.118   2.246  1.00  0.00     0.043 A 
HETATM   22  C   UNL     1       9.719  23.384   0.938  1.00  0.00     0.116 A 
HETATM   23  C   UNL     1       8.469  23.717   0.503  1.00  0.00     0.043 A 
HETATM   24  F   UNL     1      10.724  23.323   0.029  1.00  0.00    -0.206 F 
HETATM   25  C   UNL     1       7.450  23.791   1.438  1.00  0.00     0.010 A 
ENDBRANCH  18  19
ENDBRANCH  17  18
ENDBRANCH  16  17
ENDBRANCH  13  16
ENDBRANCH   1  10
BRANCH   7  26
HETATM   26  N   UNL     1       0.821  29.092   6.685  1.00  0.00    -0.379 N 
HETATM   27  C   UNL     1       0.770  28.361   7.952  1.00  0.00     0.123 C 
HETATM   28  C   UNL     1       0.574  26.873   7.721  1.00  0.00     0.028 C 
HETATM   29  C   UNL     1      -0.613  26.504   6.821  1.00  0.00    -0.045 C 
HETATM   30  C   UNL     1      -1.937  26.738   7.551  1.00  0.00     0.015 C 
HETATM   31  C   UNL     1      -0.508  25.027   6.433  1.00  0.00     0.015 C 
HETATM   32  C   UNL     1      -0.556  27.378   5.561  1.00  0.00     0.028 C 
HETATM   33  C   UNL     1      -0.360  28.858   5.847  1.00  0.00     0.123 C 
ENDBRANCH   7  26
BRANCH   6  34
HETATM   34  C   UNL     1      -0.084  31.485   8.038  1.00  0.00     0.260 C 
BRANCH  34  35
HETATM   35  O   UNL     1      -1.066  32.396   7.538  1.00  0.00    -0.360 OA
BRANCH  35  36
HETATM   36  C   UNL     1      -2.430  31.967   7.274  1.00  0.00     0.051 C 
HETATM   37  C   UNL     1      -3.424  33.015   7.736  1.00  0.00     0.045 C 
HETATM   38  C   UNL     1      -2.727  30.629   7.924  1.00  0.00     0.045 C 
HETATM   39  C   UNL     1      -2.421  31.841   5.768  1.00  0.00     0.045 C 
ENDBRANCH  35  36
ENDBRANCH  34  35
BRANCH  34  40
HETATM   40  C   UNL     1       0.324  31.828   9.466  1.00  0.00     0.208 C 
HETATM   41  O   UNL     1      -0.413  32.741  10.019  1.00  0.00    -0.646 OA
HETATM   42  O   UNL     1       1.255  31.270  10.027  1.00  0.00    -0.646 OA
ENDBRANCH  34  40
ENDBRANCH   6  34
TORSDOF 10
ENDMDL
MODEL 16
REMARK VINA RESULT:    -6.061      4.791     10.498
REMARK INTER + INTRA:         -11.425
REMARK INTER:                  -9.000
REMARK INTRA:                  -2.424
REMARK UNBOUND:                -1.821
REMARK  10 active torsions:
REMARK  status: ('A' for Active; 'I' for Inactive)
REMARK    1  A    between atoms: C_8  and  O_27 
REMARK    2  A    between atoms: C_10  and  C_15 
REMARK    3  A    between atoms: C_11  and  C_23 
REMARK    4  A    between atoms: C_12  and  C_36 
REMARK    5  A    between atoms: C_12  and  C_14 
REMARK    6  A    between atoms: C_14  and  O_35 
REMARK    7  A    between atoms: C_20  and  C_23 
REMARK    8  A    between atoms: C_21  and  N_22 
REMARK    9  A    between atoms: C_23  and  O_27 
REMARK   10  A    between atoms: C_32  and  O_35 
ROOT
HETATM    1  C   UNL     1       3.862  29.156   7.120  1.00  0.00     0.024 A 
HETATM    2  C   UNL     1       5.125  29.389   7.681  1.00  0.00     0.018 A 
HETATM    3  N   UNL     1       5.291  30.196   8.736  1.00  0.00    -0.362 N 
ATOM      4  HN  UNL     1       6.225  30.360   9.109  1.00  0.00     0.165 HD
HETATM    5  C   UNL     1       4.235  30.786   9.299  1.00  0.00     0.017 A 
HETATM    6  C   UNL     1       2.922  30.643   8.783  1.00  0.00     0.031 A 
HETATM    7  C   UNL     1       2.742  29.817   7.659  1.00  0.00     0.054 A 
HETATM    8  C   UNL     1       4.533  31.585  10.534  1.00  0.00     0.069 C 
HETATM    9  C   UNL     1       6.368  28.708   7.190  1.00  0.00     0.069 C 
ENDROOT
BRANCH   1  10
HETATM   10  C   UNL     1       3.753  28.084   6.079  1.00  0.00    -0.022 A 
HETATM   11  C   UNL     1       3.918  28.369   4.722  1.00  0.00     0.015 A 
HETATM   12  C   UNL     1       3.760  27.388   3.761  1.00  0.00     0.037 A 
HETATM   13  C   UNL     1       3.440  26.095   4.145  1.00  0.00     0.068 A 
HETATM   14  C   UNL     1       3.292  25.785   5.487  1.00  0.00     0.037 A 
HETATM   15  C   UNL     1       3.461  26.770   6.440  1.00  0.00     0.015 A 
BRANCH  13  16
HETATM   16  O   UNL     1       3.245  25.180   3.143  1.00  0.00    -0.351 OA
BRANCH  16  17
HETATM   17  C   UNL     1       4.283  24.216   2.878  1.00  0.00     0.180 C 
BRANCH  17  18
HETATM   18  C   UNL     1       5.603  24.917   2.589  1.00  0.00     0.065 C 
BRANCH  18  19
HETATM   19  C   UNL     1       6.710  24.510   3.527  1.00  0.00    -0.056 A 
HETATM   20  C   UNL     1       7.794  23.774   3.074  1.00  0.00     0.010 A 
HETATM   21  C   UNL     1       8.814  23.402   3.931  1.00  0.00     0.043 A 
HETATM   22  C   UNL     1       8.732  23.790   5.238  1.00  0.00     0.116 A 
HETATM   23  C   UNL     1       7.691  24.520   5.731  1.00  0.00     0.043 A 
HETATM   24  F   UNL     1       9.726  23.427   6.086  1.00  0.00    -0.206 F 
HETATM   25  C   UNL     1       6.672  24.875   4.864  1.00  0.00     0.010 A 
ENDBRANCH  18  19
ENDBRANCH  17  18
ENDBRANCH  16  17
ENDBRANCH  13  16
ENDBRANCH   1  10
BRANCH   7  26
HETATM   26  N   UNL     1       1.462  29.690   7.068  1.00  0.00    -0.379 N 
HETATM   27  C   UNL     1       1.176  30.222   5.735  1.00  0.00     0.123 C 
HETATM   28  C   UNL     1      -0.273  30.659   5.617  1.00  0.00     0.028 C 
HETATM   29  C   UNL     1      -1.308  29.602   6.025  1.00  0.00    -0.045 C 
HETATM   30  C   UNL     1      -1.382  28.487   4.980  1.00  0.00     0.015 C 
HETATM   31  C   UNL     1      -2.682  30.267   6.147  1.00  0.00     0.015 C 
HETATM   32  C   UNL     1      -0.893  29.014   7.380  1.00  0.00     0.028 C 
HETATM   33  C   UNL     1       0.566  28.591   7.446  1.00  0.00     0.123 C 
ENDBRANCH   7  26
BRANCH   6  34
HETATM   34  C   UNL     1       1.722  31.395   9.391  1.00  0.00     0.260 C 
BRANCH  34  35
HETATM   35  O   UNL     1       1.939  32.808   9.443  1.00  0.00    -0.360 OA
BRANCH  35  36
HETATM   36  C   UNL     1       1.306  33.704   8.489  1.00  0.00     0.051 C 
HETATM   37  C   UNL     1       2.139  33.824   7.226  1.00  0.00     0.045 C 
HETATM   38  C   UNL     1       1.056  35.072   9.093  1.00  0.00     0.045 C 
HETATM   39  C   UNL     1       0.001  32.989   8.222  1.00  0.00     0.045 C 
ENDBRANCH  35  36
ENDBRANCH  34  35
BRANCH  34  40
HETATM   40  C   UNL     1       1.452  30.818  10.777  1.00  0.00     0.208 C 
HETATM   41  O   UNL     1       1.289  31.717  11.698  1.00  0.00    -0.646 OA
HETATM   42  O   UNL     1       1.384  29.615  10.977  1.00  0.00    -0.646 OA
ENDBRANCH  34  40
ENDBRANCH   6  34
TORSDOF 10
ENDMDL
MODEL 17
REMARK VINA RESULT:    -6.030      2.316      3.079
REMARK INTER + INTRA:         -11.376
REMARK INTER:                  -8.284
REMARK INTRA:                  -3.092
REMARK UNBOUND:                -1.821
REMARK  10 active torsions:
REMARK  status: ('A' for Active; 'I' for Inactive)
REMARK    1  A    between atoms: C_8  and  O_27 
REMARK    2  A    between atoms: C_10  and  C_15 
REMARK    3  A    between atoms: C_11  and  C_23 
REMARK    4  A    between atoms: C_12  and  C_36 
REMARK    5  A    between atoms: C_12  and  C_14 
REMARK    6  A    between atoms: C_14  and  O_35 
REMARK    7  A    between atoms: C_20  and  C_23 
REMARK    8  A    between atoms: C_21  and  N_22 
REMARK    9  A    between atoms: C_23  and  O_27 
REMARK   10  A    between atoms: C_32  and  O_35 
ROOT
HETATM    1  C   UNL     1      -1.298  29.747   6.142  1.00  0.00     0.024 A 
HETATM    2  C   UNL     1      -1.661  28.574   5.466  1.00  0.00     0.018 A 
HETATM    3  N   UNL     1      -0.835  27.525   5.377  1.00  0.00    -0.362 N 
ATOM      4  HN  UNL     1      -1.122  26.693   4.863  1.00  0.00     0.165 HD
HETATM    5  C   UNL     1       0.364  27.567   5.961  1.00  0.00     0.017 A 
HETATM    6  C   UNL     1       0.840  28.720   6.635  1.00  0.00     0.031 A 
HETATM    7  C   UNL     1      -0.013  29.837   6.712  1.00  0.00     0.054 A 
HETATM    8  C   UNL     1       1.159  26.296   5.879  1.00  0.00     0.069 C 
HETATM    9  C   UNL     1      -3.016  28.380   4.853  1.00  0.00     0.069 C 
ENDROOT
BRANCH   1  10
HETATM   10  C   UNL     1      -2.360  30.779   6.362  1.00  0.00    -0.022 A 
HETATM   11  C   UNL     1      -3.136  30.787   7.524  1.00  0.00     0.015 A 
HETATM   12  C   UNL     1      -4.153  31.706   7.698  1.00  0.00     0.037 A 
HETATM   13  C   UNL     1      -4.408  32.644   6.710  1.00  0.00     0.068 A 
HETATM   14  C   UNL     1      -3.638  32.669   5.559  1.00  0.00     0.037 A 
HETATM   15  C   UNL     1      -2.618  31.752   5.398  1.00  0.00     0.015 A 
BRANCH  13  16
HETATM   16  O   UNL     1      -5.463  33.494   6.918  1.00  0.00    -0.351 OA
BRANCH  16  17
HETATM   17  C   UNL     1      -5.415  34.390   8.047  1.00  0.00     0.180 C 
BRANCH  17  18
HETATM   18  C   UNL     1      -4.294  35.405   7.876  1.00  0.00     0.065 C 
BRANCH  18  19
HETATM   19  C   UNL     1      -3.466  35.590   9.122  1.00  0.00    -0.056 A 
HETATM   20  C   UNL     1      -3.024  34.499   9.853  1.00  0.00     0.010 A 
HETATM   21  C   UNL     1      -2.260  34.664  10.994  1.00  0.00     0.043 A 
HETATM   22  C   UNL     1      -1.942  35.935  11.378  1.00  0.00     0.116 A 
HETATM   23  C   UNL     1      -2.346  37.041  10.691  1.00  0.00     0.043 A 
HETATM   24  F   UNL     1      -1.196  36.107  12.498  1.00  0.00    -0.206 F 
HETATM   25  C   UNL     1      -3.118  36.860   9.556  1.00  0.00     0.010 A 
ENDBRANCH  18  19
ENDBRANCH  17  18
ENDBRANCH  16  17
ENDBRANCH  13  16
ENDBRANCH   1  10
BRANCH   7  26
HETATM   26  N   UNL     1       0.437  31.034   7.319  1.00  0.00    -0.379 N 
HETATM   27  C   UNL     1       0.465  31.192   8.774  1.00  0.00     0.123 C 
HETATM   28  C   UNL     1       0.234  32.638   9.174  1.00  0.00     0.028 C 
HETATM   29  C   UNL     1       1.150  33.660   8.488  1.00  0.00    -0.045 C 
HETATM   30  C   UNL     1       2.576  33.559   9.035  1.00  0.00     0.015 C 
HETATM   31  C   UNL     1       0.613  35.069   8.746  1.00  0.00     0.015 C 
HETATM   32  C   UNL     1       1.154  33.372   6.981  1.00  0.00     0.028 C 
HETATM   33  C   UNL     1       1.392  31.911   6.633  1.00  0.00     0.123 C 
ENDBRANCH   7  26
BRANCH   6  34
HETATM   34  C   UNL     1       2.258  28.787   7.234  1.00  0.00     0.260 C 
BRANCH  34  35
HETATM   35  O   UNL     1       3.270  28.548   6.253  1.00  0.00    -0.360 OA
BRANCH  35  36
HETATM   36  C   UNL     1       4.422  29.426   6.127  1.00  0.00     0.051 C 
HETATM   37  C   UNL     1       4.477  30.413   7.278  1.00  0.00     0.045 C 
HETATM   38  C   UNL     1       4.421  30.157   4.799  1.00  0.00     0.045 C 
HETATM   39  C   UNL     1       5.565  28.438   6.194  1.00  0.00     0.045 C 
ENDBRANCH  35  36
ENDBRANCH  34  35
BRANCH  34  40
HETATM   40  C   UNL     1       2.338  27.783   8.379  1.00  0.00     0.208 C 
HETATM   41  O   UNL     1       1.355  27.867   9.221  1.00  0.00    -0.646 OA
HETATM   42  O   UNL     1       3.247  26.972   8.469  1.00  0.00    -0.646 OA
ENDBRANCH  34  40
ENDBRANCH   6  34
TORSDOF 10
ENDMDL
MODEL 18
REMARK VINA RESULT:    -6.015      5.059      7.628
REMARK INTER + INTRA:         -11.352
REMARK INTER:                  -8.828
REMARK INTRA:                  -2.523
REMARK UNBOUND:                -1.821
REMARK  10 active torsions:
REMARK  status: ('A' for Active; 'I' for Inactive)
REMARK    1  A    between atoms: C_8  and  O_27 
REMARK    2  A    between atoms: C_10  and  C_15 
REMARK    3  A    between atoms: C_11  and  C_23 
REMARK    4  A    between atoms: C_12  and  C_36 
REMARK    5  A    between atoms: C_12  and  C_14 
REMARK    6  A    between atoms: C_14  and  O_35 
REMARK    7  A    between atoms: C_20  and  C_23 
REMARK    8  A    between atoms: C_21  and  N_22 
REMARK    9  A    between atoms: C_23  and  O_27 
REMARK   10  A    between atoms: C_32  and  O_35 
ROOT
HETATM    1  C   UNL     1       4.791  26.027   4.646  1.00  0.00     0.024 A 
HETATM    2  C   UNL     1       4.849  25.225   3.498  1.00  0.00     0.018 A 
HETATM    3  N   UNL     1       5.349  23.984   3.528  1.00  0.00    -0.362 N 
ATOM      4  HN  UNL     1       5.394  23.433   2.671  1.00  0.00     0.165 HD
HETATM    5  C   UNL     1       5.787  23.467   4.677  1.00  0.00     0.017 A 
HETATM    6  C   UNL     1       5.806  24.210   5.885  1.00  0.00     0.031 A 
HETATM    7  C   UNL     1       5.306  25.525   5.857  1.00  0.00     0.054 A 
HETATM    8  C   UNL     1       6.231  22.034   4.605  1.00  0.00     0.069 C 
HETATM    9  C   UNL     1       4.301  25.666   2.174  1.00  0.00     0.069 C 
ENDROOT
BRANCH   1  10
HETATM   10  C   UNL     1       4.031  27.314   4.556  1.00  0.00    -0.022 A 
HETATM   11  C   UNL     1       4.681  28.549   4.634  1.00  0.00     0.015 A 
HETATM   12  C   UNL     1       3.970  29.733   4.608  1.00  0.00     0.037 A 
HETATM   13  C   UNL     1       2.588  29.703   4.492  1.00  0.00     0.068 A 
HETATM   14  C   UNL     1       1.926  28.491   4.391  1.00  0.00     0.037 A 
HETATM   15  C   UNL     1       2.646  27.313   4.410  1.00  0.00     0.015 A 
BRANCH  13  16
HETATM   16  O   UNL     1       1.936  30.909   4.525  1.00  0.00    -0.351 OA
BRANCH  16  17
HETATM   17  C   UNL     1       1.225  31.276   5.724  1.00  0.00     0.180 C 
BRANCH  17  18
HETATM   18  C   UNL     1       1.493  32.730   6.082  1.00  0.00     0.065 C 
BRANCH  18  19
HETATM   19  C   UNL     1       2.673  32.907   7.003  1.00  0.00    -0.056 A 
HETATM   20  C   UNL     1       3.918  33.259   6.507  1.00  0.00     0.010 A 
HETATM   21  C   UNL     1       5.003  33.427   7.350  1.00  0.00     0.043 A 
HETATM   22  C   UNL     1       4.812  33.246   8.689  1.00  0.00     0.116 A 
HETATM   23  C   UNL     1       3.606  32.905   9.228  1.00  0.00     0.043 A 
HETATM   24  F   UNL     1       5.870  33.405   9.523  1.00  0.00    -0.206 F 
HETATM   25  C   UNL     1       2.533  32.732   8.371  1.00  0.00     0.010 A 
ENDBRANCH  18  19
ENDBRANCH  17  18
ENDBRANCH  16  17
ENDBRANCH  13  16
ENDBRANCH   1  10
BRANCH   7  26
HETATM   26  N   UNL     1       5.359  26.330   7.020  1.00  0.00    -0.379 N 
HETATM   27  C   UNL     1       4.398  26.165   8.112  1.00  0.00     0.123 C 
HETATM   28  C   UNL     1       4.138  27.483   8.819  1.00  0.00     0.028 C 
HETATM   29  C   UNL     1       5.393  28.227   9.293  1.00  0.00    -0.045 C 
HETATM   30  C   UNL     1       6.024  27.514  10.491  1.00  0.00     0.015 C 
HETATM   31  C   UNL     1       5.007  29.651   9.703  1.00  0.00     0.015 C 
HETATM   32  C   UNL     1       6.397  28.274   8.134  1.00  0.00     0.028 C 
HETATM   33  C   UNL     1       6.623  26.929   7.461  1.00  0.00     0.123 C 
ENDBRANCH   7  26
BRANCH   6  34
HETATM   34  C   UNL     1       6.392  23.632   7.187  1.00  0.00     0.260 C 
BRANCH  34  35
HETATM   35  O   UNL     1       7.706  23.100   7.000  1.00  0.00    -0.360 OA
BRANCH  35  36
HETATM   36  C   UNL     1       8.828  23.559   7.802  1.00  0.00     0.051 C 
HETATM   37  C   UNL     1       9.791  22.421   8.084  1.00  0.00     0.045 C 
HETATM   38  C   UNL     1       8.363  24.196   9.097  1.00  0.00     0.045 C 
HETATM   39  C   UNL     1       9.449  24.593   6.889  1.00  0.00     0.045 C 
ENDBRANCH  35  36
ENDBRANCH  34  35
BRANCH  34  40
HETATM   40  C   UNL     1       5.428  22.575   7.714  1.00  0.00     0.208 C 
HETATM   41  O   UNL     1       6.013  21.515   8.181  1.00  0.00    -0.646 OA
HETATM   42  O   UNL     1       4.217  22.736   7.703  1.00  0.00    -0.646 OA
ENDBRANCH  34  40
ENDBRANCH   6  34
TORSDOF 10
ENDMDL
MODEL 19
REMARK VINA RESULT:    -5.908      2.164      4.727
REMARK INTER + INTRA:         -11.182
REMARK INTER:                  -8.490
REMARK INTRA:                  -2.692
REMARK UNBOUND:                -1.821
REMARK  10 active torsions:
REMARK  status: ('A' for Active; 'I' for Inactive)
REMARK    1  A    between atoms: C_8  and  O_27 
REMARK    2  A    between atoms: C_10  and  C_15 
REMARK    3  A    between atoms: C_11  and  C_23 
REMARK    4  A    between atoms: C_12  and  C_36 
REMARK    5  A    between atoms: C_12  and  C_14 
REMARK    6  A    between atoms: C_14  and  O_35 
REMARK    7  A    between atoms: C_20  and  C_23 
REMARK    8  A    between atoms: C_21  and  N_22 
REMARK    9  A    between atoms: C_23  and  O_27 
REMARK   10  A    between atoms: C_32  and  O_35 
ROOT
HETATM    1  C   UNL     1       0.602  32.409   7.945  1.00  0.00     0.024 A 
HETATM    2  C   UNL     1       1.193  33.626   8.310  1.00  0.00     0.018 A 
HETATM    3  N   UNL     1       2.483  33.886   8.067  1.00  0.00    -0.362 N 
ATOM      4  HN  UNL     1       2.887  34.774   8.362  1.00  0.00     0.165 HD
HETATM    5  C   UNL     1       3.240  32.984   7.440  1.00  0.00     0.017 A 
HETATM    6  C   UNL     1       2.747  31.708   7.065  1.00  0.00     0.031 A 
HETATM    7  C   UNL     1       1.398  31.418   7.339  1.00  0.00     0.054 A 
HETATM    8  C   UNL     1       4.641  33.428   7.135  1.00  0.00     0.069 C 
HETATM    9  C   UNL     1       0.417  34.748   8.934  1.00  0.00     0.069 C 
ENDROOT
BRANCH   1  10
HETATM   10  C   UNL     1      -0.886  32.294   8.072  1.00  0.00    -0.022 A 
HETATM   11  C   UNL     1      -1.723  32.442   6.963  1.00  0.00     0.015 A 
HETATM   12  C   UNL     1      -3.098  32.392   7.094  1.00  0.00     0.037 A 
HETATM   13  C   UNL     1      -3.662  32.182   8.343  1.00  0.00     0.068 A 
HETATM   14  C   UNL     1      -2.850  32.011   9.453  1.00  0.00     0.037 A 
HETATM   15  C   UNL     1      -1.478  32.055   9.310  1.00  0.00     0.015 A 
BRANCH  13  16
HETATM   16  O   UNL     1      -5.031  32.196   8.416  1.00  0.00    -0.351 OA
BRANCH  16  17
HETATM   17  C   UNL     1      -5.732  33.384   7.999  1.00  0.00     0.180 C 
BRANCH  17  18
HETATM   18  C   UNL     1      -5.592  34.483   9.042  1.00  0.00     0.065 C 
BRANCH  18  19
HETATM   19  C   UNL     1      -4.645  35.580   8.626  1.00  0.00    -0.056 A 
HETATM   20  C   UNL     1      -4.940  36.406   7.552  1.00  0.00     0.010 A 
HETATM   21  C   UNL     1      -4.076  37.417   7.170  1.00  0.00     0.043 A 
HETATM   22  C   UNL     1      -2.926  37.588   7.886  1.00  0.00     0.116 A 
HETATM   23  C   UNL     1      -2.593  36.806   8.953  1.00  0.00     0.043 A 
HETATM   24  F   UNL     1      -2.072  38.574   7.516  1.00  0.00    -0.206 F 
HETATM   25  C   UNL     1      -3.463  35.793   9.318  1.00  0.00     0.010 A 
ENDBRANCH  18  19
ENDBRANCH  17  18
ENDBRANCH  16  17
ENDBRANCH  13  16
ENDBRANCH   1  10
BRANCH   7  26
HETATM   26  N   UNL     1       0.872  30.137   7.041  1.00  0.00    -0.379 N 
HETATM   27  C   UNL     1       0.694  29.684   5.661  1.00  0.00     0.123 C 
HETATM   28  C   UNL     1      -0.485  28.735   5.542  1.00  0.00     0.028 C 
HETATM   29  C   UNL     1      -0.469  27.550   6.517  1.00  0.00    -0.045 C 
HETATM   30  C   UNL     1       0.605  26.536   6.117  1.00  0.00     0.015 C 
HETATM   31  C   UNL     1      -1.838  26.865   6.496  1.00  0.00     0.015 C 
HETATM   32  C   UNL     1      -0.176  28.084   7.925  1.00  0.00     0.028 C 
HETATM   33  C   UNL     1       1.015  29.028   7.990  1.00  0.00     0.123 C 
ENDBRANCH   7  26
BRANCH   6  34
HETATM   34  C   UNL     1       3.652  30.644   6.417  1.00  0.00     0.260 C 
BRANCH  34  35
HETATM   35  O   UNL     1       4.790  30.336   7.226  1.00  0.00    -0.360 OA
BRANCH  35  36
HETATM   36  C   UNL     1       5.042  28.981   7.691  1.00  0.00     0.051 C 
HETATM   37  C   UNL     1       6.522  28.654   7.623  1.00  0.00     0.045 C 
HETATM   38  C   UNL     1       4.236  27.965   6.905  1.00  0.00     0.045 C 
HETATM   39  C   UNL     1       4.559  29.057   9.121  1.00  0.00     0.045 C 
ENDBRANCH  35  36
ENDBRANCH  34  35
BRANCH  34  40
HETATM   40  C   UNL     1       4.065  31.146   5.037  1.00  0.00     0.208 C 
HETATM   41  O   UNL     1       3.122  31.770   4.402  1.00  0.00    -0.646 OA
HETATM   42  O   UNL     1       5.191  30.979   4.596  1.00  0.00    -0.646 OA
ENDBRANCH  34  40
ENDBRANCH   6  34
TORSDOF 10
ENDMDL
MODEL 20
REMARK VINA RESULT:    -5.892      5.236      7.893
REMARK INTER + INTRA:         -11.157
REMARK INTER:                  -8.523
REMARK INTRA:                  -2.634
REMARK UNBOUND:                -1.821
REMARK  10 active torsions:
REMARK  status: ('A' for Active; 'I' for Inactive)
REMARK    1  A    between atoms: C_8  and  O_27 
REMARK    2  A    between atoms: C_10  and  C_15 
REMARK    3  A    between atoms: C_11  and  C_23 
REMARK    4  A    between atoms: C_12  and  C_36 
REMARK    5  A    between atoms: C_12  and  C_14 
REMARK    6  A    between atoms: C_14  and  O_35 
REMARK    7  A    between atoms: C_20  and  C_23 
REMARK    8  A    between atoms: C_21  and  N_22 
REMARK    9  A    between atoms: C_23  and  O_27 
REMARK   10  A    between atoms: C_32  and  O_35 
ROOT
HETATM    1  C   UNL     1       4.688  27.504   5.721  1.00  0.00     0.024 A 
HETATM    2  C   UNL     1       4.105  28.086   4.587  1.00  0.00     0.018 A 
HETATM    3  N   UNL     1       3.834  27.374   3.487  1.00  0.00    -0.362 N 
ATOM      4  HN  UNL     1       3.427  27.831   2.672  1.00  0.00     0.165 HD
HETATM    5  C   UNL     1       4.096  26.065   3.456  1.00  0.00     0.017 A 
HETATM    6  C   UNL     1       4.719  25.391   4.537  1.00  0.00     0.031 A 
HETATM    7  C   UNL     1       5.030  26.138   5.688  1.00  0.00     0.054 A 
HETATM    8  C   UNL     1       3.657  25.355   2.208  1.00  0.00     0.069 C 
HETATM    9  C   UNL     1       3.683  29.524   4.542  1.00  0.00     0.069 C 
ENDROOT
BRANCH   1  10
HETATM   10  C   UNL     1       4.761  28.332   6.966  1.00  0.00    -0.022 A 
HETATM   11  C   UNL     1       5.955  28.935   7.368  1.00  0.00     0.015 A 
HETATM   12  C   UNL     1       6.033  29.651   8.548  1.00  0.00     0.037 A 
HETATM   13  C   UNL     1       4.907  29.784   9.346  1.00  0.00     0.068 A 
HETATM   14  C   UNL     1       3.707  29.212   8.956  1.00  0.00     0.037 A 
HETATM   15  C   UNL     1       3.638  28.505   7.772  1.00  0.00     0.015 A 
BRANCH  13  16
HETATM   16  O   UNL     1       5.060  30.460  10.528  1.00  0.00    -0.351 OA
BRANCH  16  17
HETATM   17  C   UNL     1       4.214  31.599  10.786  1.00  0.00     0.180 C 
BRANCH  17  18
HETATM   18  C   UNL     1       4.590  32.761   9.879  1.00  0.00     0.065 C 
BRANCH  18  19
HETATM   19  C   UNL     1       3.822  32.777   8.582  1.00  0.00    -0.056 A 
HETATM   20  C   UNL     1       4.481  32.794   7.363  1.00  0.00     0.010 A 
HETATM   21  C   UNL     1       3.779  32.804   6.171  1.00  0.00     0.043 A 
HETATM   22  C   UNL     1       2.415  32.785   6.225  1.00  0.00     0.116 A 
HETATM   23  C   UNL     1       1.719  32.761   7.399  1.00  0.00     0.043 A 
HETATM   24  F   UNL     1       1.719  32.798   5.062  1.00  0.00    -0.206 F 
HETATM   25  C   UNL     1       2.435  32.762   8.583  1.00  0.00     0.010 A 
ENDBRANCH  18  19
ENDBRANCH  17  18
ENDBRANCH  16  17
ENDBRANCH  13  16
ENDBRANCH   1  10
BRANCH   7  26
HETATM   26  N   UNL     1       5.708  25.526   6.769  1.00  0.00    -0.379 N 
HETATM   27  C   UNL     1       7.143  25.724   6.987  1.00  0.00     0.123 C 
HETATM   28  C   UNL     1       7.774  24.502   7.627  1.00  0.00     0.028 C 
HETATM   29  C   UNL     1       7.084  24.004   8.905  1.00  0.00    -0.045 C 
HETATM   30  C   UNL     1       7.348  24.961  10.069  1.00  0.00     0.015 C 
HETATM   31  C   UNL     1       7.628  22.619   9.261  1.00  0.00     0.015 C 
HETATM   32  C   UNL     1       5.576  23.919   8.639  1.00  0.00     0.028 C 
HETATM   33  C   UNL     1       4.991  25.168   7.998  1.00  0.00     0.123 C 
ENDBRANCH   7  26
BRANCH   6  34
HETATM   34  C   UNL     1       5.093  23.898   4.458  1.00  0.00     0.260 C 
BRANCH  34  35
HETATM   35  O   UNL     1       5.529  23.518   3.150  1.00  0.00    -0.360 OA
BRANCH  35  36
HETATM   36  C   UNL     1       6.942  23.448   2.816  1.00  0.00     0.051 C 
HETATM   37  C   UNL     1       7.796  23.922   3.977  1.00  0.00     0.045 C 
HETATM   38  C   UNL     1       7.258  24.242   1.564  1.00  0.00     0.045 C 
HETATM   39  C   UNL     1       7.121  21.966   2.570  1.00  0.00     0.045 C 
ENDBRANCH  35  36
ENDBRANCH  34  35
BRANCH  34  40
HETATM   40  C   UNL     1       3.886  23.081   4.906  1.00  0.00     0.208 C 
HETATM   41  O   UNL     1       3.675  22.020   4.191  1.00  0.00    -0.646 OA
HETATM   42  O   UNL     1       3.202  23.406   5.865  1.00  0.00    -0.646 OA
ENDBRANCH  34  40
ENDBRANCH   6  34
TORSDOF 10
ENDMDL
