REMARK  15 active torsions:
REMARK  status: ('A' for Active; 'I' for Inactive)
REMARK    1  A    between atoms: C_2  and  C_3 
REMARK    2  A    between atoms: C_2  and  C_17 
REMARK    3  A    between atoms: C_5  and  O_33 
REMARK    4  A    between atoms: C_8  and  C_9 
REMARK    5  A    between atoms: C_8  and  N_28 
REMARK    6  A    between atoms: C_8  and  C_10 
REMARK    7  A    between atoms: C_10  and  C_19 
REMARK    8  A    between atoms: C_12  and  C_13 
REMARK    9  A    between atoms: C_13  and  C_14 
REMARK   10  A    between atoms: C_14  and  C_15 
REMARK   11  A    between atoms: C_15  and  C_16 
REMARK   12  A    between atoms: C_15  and  N_28 
REMARK       I    between atoms: C_16  and  N_26 
REMARK   13  A    between atoms: C_17  and  N_26 
REMARK   14  A    between atoms: C_17  and  C_18 
REMARK   15  A    between atoms: C_19  and  C_20 
ROOT
HETATM    1  C   UNK     1     -52.692  95.689  23.277  1.00  0.00     0.278 C 
ENDROOT
BRANCH   1   2
HETATM    2  C   UNK     1     -53.004  96.053  21.820  1.00  0.00     0.043 C 
BRANCH   2   3
HETATM    3  C   UNK     1     -52.160  95.313  20.776  1.00  0.00     0.002 C 
BRANCH   3   4
HETATM    4  C   UNK     1     -52.391  93.817  20.780  1.00  0.00    -0.004 C 
HETATM    5  C   UNK     1     -51.797  93.104  19.560  1.00  0.00     0.005 C 
ENDBRANCH   3   4
ENDBRANCH   2   3
ENDBRANCH   1   2
BRANCH   1   6
HETATM    6  C   UNK     1     -51.256  96.010  23.609  1.00  0.00     0.249 C 
HETATM    7  N   UNK     1     -50.267  95.005  23.448  1.00  0.00    -0.344 N 
ATOM      8  HN  UNK     1     -50.529  94.067  23.145  1.00  0.00     0.163 HD
HETATM    9  O   UNK     1     -50.922  97.102  24.019  1.00  0.00    -0.271 OA
BRANCH   7  10
HETATM   10  C   UNK     1     -48.873  95.328  23.721  1.00  0.00     0.189 C 
BRANCH  10  11
HETATM   11  C   UNK     1     -48.423  96.421  22.764  1.00  0.00     0.197 C 
HETATM   12  O   UNK     1     -48.974  96.554  21.617  1.00  0.00    -0.646 OA
HETATM   13  O   UNK     1     -47.479  97.155  23.094  1.00  0.00    -0.646 OA
ENDBRANCH  10  11
BRANCH  10  14
HETATM   14  C   UNK     1     -47.960  94.141  23.584  1.00  0.00     0.074 C 
BRANCH  14  15
HETATM   15  C   UNK     1     -48.315  93.132  22.492  1.00  0.00    -0.056 A 
HETATM   16  C   UNK     1     -47.834  93.267  21.207  1.00  0.00     0.010 A 
HETATM   17  C   UNK     1     -48.165  92.329  20.223  1.00  0.00     0.037 A 
HETATM   18  C   UNK     1     -48.977  91.271  20.579  1.00  0.00     0.065 A 
HETATM   19  C   UNK     1     -49.482  91.148  21.848  1.00  0.00     0.037 A 
HETATM   20  C   UNK     1     -49.142  92.065  22.818  1.00  0.00     0.010 A 
BRANCH  18  21
HETATM   21  O   UNK     1     -49.332  90.308  19.609  1.00  0.00    -0.361 OA
ATOM     22  HO  UNK     1     -49.891  89.580  19.854  1.00  0.00     0.217 HD
ENDBRANCH  18  21
ENDBRANCH  14  15
ENDBRANCH  10  14
ENDBRANCH   7  10
ENDBRANCH   1   6
BRANCH   1  23
HETATM   23  N   UNK     1     -53.610  96.442  24.153  1.00  0.00    -0.048 N 
ATOM     24  HN2 UNK     1     -53.462  97.448  24.075  1.00  0.00     0.279 HD
ATOM     25  HN1 UNK     1     -54.571  96.399  23.815  1.00  0.00     0.279 HD
BRANCH  23  26
HETATM   26  C   UNK     1     -53.506  95.984  25.554  1.00  0.00     0.287 C 
BRANCH  26  27
HETATM   27  C   UNK     1     -53.822  94.550  25.655  1.00  0.00     0.204 C 
HETATM   28  O   UNK     1     -54.862  93.989  25.100  1.00  0.00    -0.646 OA
HETATM   29  O   UNK     1     -53.075  93.555  26.163  1.00  0.00    -0.646 OA
ENDBRANCH  26  27
BRANCH  26  30
HETATM   30  C   UNK     1     -54.519  96.781  26.379  1.00  0.00     0.049 C 
BRANCH  30  31
HETATM   31  C   UNK     1     -54.186  96.712  27.855  1.00  0.00     0.041 C 
BRANCH  31  32
HETATM   32  C   UNK     1     -55.052  97.621  28.744  1.00  0.00    -0.058 A 
HETATM   33  C   UNK     1     -55.718  98.716  28.210  1.00  0.00     0.007 A 
HETATM   34  C   UNK     1     -56.489  99.527  29.026  1.00  0.00     0.001 A 
HETATM   35  C   UNK     1     -56.580  99.225  30.367  1.00  0.00     0.000 A 
HETATM   36  C   UNK     1     -55.918  98.145  30.909  1.00  0.00     0.001 A 
HETATM   37  C   UNK     1     -55.150  97.318  30.088  1.00  0.00     0.007 A 
ENDBRANCH  31  32
ENDBRANCH  30  31
ENDBRANCH  26  30
ENDBRANCH  23  26
ENDBRANCH   1  23
TORSDOF 15
