REMARK  6 active torsions:
REMARK  status: ('A' for Active; 'I' for Inactive)
REMARK    1  A    between atoms: P_2  and  O_5 
REMARK    2  A    between atoms: O_5  and  C_6 
REMARK    3  A    between atoms: C_6  and  C_7 
REMARK    4  A    between atoms: C_9  and  O_10 
REMARK    5  A    between atoms: C_13  and  N_14 
REMARK    6  A    between atoms: C_23  and  N_24 
ROOT
HETATM    1  N   UNL     1      -7.331   1.374  26.888  1.00  0.00    -0.255 N 
HETATM    2  C   UNL     1      -8.293   2.222  27.227  1.00  0.00     0.331 A 
HETATM    3  N   UNL     1      -8.285   3.381  26.548  1.00  0.00    -0.300 N 
ATOM      4  HN  UNL     1      -8.925   4.170  26.635  1.00  0.00     0.171 HD
HETATM    5  C   UNL     1      -7.218   3.248  25.716  1.00  0.00     0.151 A 
HETATM    6  C   UNL     1      -6.659   4.079  24.758  1.00  0.00     0.290 A 
HETATM    7  O   UNL     1      -7.159   5.206  24.527  1.00  0.00    -0.265 OA
HETATM    8  N   UNL     1      -5.579   3.669  24.083  1.00  0.00    -0.154 N 
ATOM      9  HN  UNL     1      -5.166   4.282  23.380  1.00  0.00     0.187 HD
HETATM   10  C   UNL     1      -5.029   2.467  24.313  1.00  0.00     0.680 A 
HETATM   11  N   UNL     1      -5.541   1.631  25.232  1.00  0.00    -0.174 N 
ATOM     12  HN  UNL     1      -5.111   0.720  25.392  1.00  0.00     0.186 HD
HETATM   13  C   UNL     1      -6.631   2.003  25.945  1.00  0.00     0.162 A 
HETATM   14  O   UNL     1      -9.162   1.937  28.125  1.00  0.00    -0.246 OA
ENDROOT
BRANCH   1  15
HETATM   15  C   UNL     1      -7.079   0.031  27.451  1.00  0.00     0.237 C 
HETATM   16  C   UNL     1      -7.417  -1.032  26.414  1.00  0.00     0.088 C 
HETATM   17  C   UNL     1      -6.420  -2.124  26.732  1.00  0.00     0.153 C 
HETATM   18  C   UNL     1      -5.219  -1.385  27.292  1.00  0.00     0.177 C 
HETATM   19  O   UNL     1      -5.698  -0.121  27.737  1.00  0.00    -0.356 OA
BRANCH  17  20
HETATM   20  O   UNL     1      -7.003  -2.937  27.755  1.00  0.00    -0.393 OA
ATOM     21  HO  UNL     1      -6.377  -3.623  27.955  1.00  0.00     0.210 HD
ENDBRANCH  17  20
BRANCH  18  22
HETATM   22  C   UNL     1      -4.167  -1.082  26.225  1.00  0.00     0.217 C 
BRANCH  22  23
HETATM   23  O   UNL     1      -3.374  -2.219  25.900  1.00  0.00    -0.280 OA
BRANCH  23  24
HETATM   24  P   UNL     1      -2.893  -2.454  24.380  1.00  0.00     0.422 P 
HETATM   25  O   UNL     1      -3.046  -1.121  23.672  1.00  0.00    -0.617 OA
HETATM   26  O   UNL     1      -1.468  -2.916  24.540  1.00  0.00    -0.617 OA
HETATM   27  O   UNL     1      -3.838  -3.493  23.848  1.00  0.00    -0.617 OA
ENDBRANCH  23  24
ENDBRANCH  22  23
ENDBRANCH  18  22
ENDBRANCH   1  15
BRANCH  10  28
HETATM   28  N   UNL     1      -3.935   2.080  23.619  1.00  0.00    -0.234 N 
ATOM     29  HN2 UNL     1      -3.546   2.715  22.921  1.00  0.00     0.174 HD
ATOM     30  HN1 UNL     1      -3.517   1.166  23.794  1.00  0.00     0.174 HD
ENDBRANCH  10  28
TORSDOF 6
