MODEL 1
REMARK VINA RESULT:    -8.140      0.000      0.000
REMARK INTER + INTRA:         -14.003
REMARK INTER:                 -11.947
REMARK INTRA:                  -2.056
REMARK UNBOUND:                -2.056
REMARK  9 active torsions:
REMARK  status: ('A' for Active; 'I' for Inactive)
REMARK    1  A    between atoms: C_1  and  O_8 
REMARK    2  A    between atoms: C_6  and  C_26 
REMARK    3  A    between atoms: O_8  and  C_10 
REMARK    4  A    between atoms: C_10  and  C_11 
REMARK    5  A    between atoms: C_13  and  N_19 
REMARK    6  A    between atoms: C_30  and  C_33 
REMARK    7  A    between atoms: C_33  and  C_34 
REMARK    8  A    between atoms: C_33  and  O_35 
REMARK    9  A    between atoms: C_34  and  O_38 
ROOT
HETATM    1  C   UNL     1      31.644  44.254   8.303  1.00  0.00     0.111 A 
HETATM    2  C   UNL     1      31.700  42.865   8.243  1.00  0.00     0.149 A 
HETATM    3  N   UNL     1      32.846  42.174   8.468  1.00  0.00    -0.351 N 
ATOM      4  HN  UNL     1      32.869  41.155   8.428  1.00  0.00     0.166 HD
HETATM    5  C   UNL     1      33.960  42.894   8.749  1.00  0.00     0.102 A 
HETATM    6  C   UNL     1      34.015  44.276   8.820  1.00  0.00     0.001 A 
HETATM    7  C   UNL     1      32.819  44.954   8.603  1.00  0.00     0.054 A 
HETATM    8  N   UNL     1      30.522  42.144   7.938  1.00  0.00    -0.080 NA
ENDROOT
BRANCH   1   9
HETATM    9  O   UNL     1      30.405  44.836   8.042  1.00  0.00    -0.338 OA
BRANCH   9  10
HETATM   10  C   UNL     1      29.889  45.698   9.060  1.00  0.00     0.160 C 
HETATM   11  C   UNL     1      28.945  44.866   9.904  1.00  0.00     0.045 C 
BRANCH  10  12
HETATM   12  C   UNL     1      29.146  46.829   8.417  1.00  0.00     0.004 A 
HETATM   13  C   UNL     1      29.800  47.793   7.624  1.00  0.00     0.084 A 
HETATM   14  C   UNL     1      29.051  48.813   7.023  1.00  0.00     0.037 A 
HETATM   15  C   UNL     1      27.662  48.849   7.181  1.00  0.00     0.044 A 
HETATM   16  C   UNL     1      27.022  47.897   7.973  1.00  0.00     0.117 A 
HETATM   17  C   UNL     1      27.759  46.889   8.599  1.00  0.00     0.054 A 
HETATM   18  F   UNL     1      25.692  47.952   8.132  1.00  0.00    -0.206 F 
BRANCH  13  19
HETATM   19  N   UNL     1      31.187  47.786   7.365  1.00  0.00    -0.197 N 
HETATM   20  N   UNL     1      31.650  47.279   6.204  1.00  0.00    -0.289 N 
HETATM   21  C   UNL     1      32.874  47.807   6.112  1.00  0.00     0.127 A 
ATOM     22  HN  UNL     1      31.180  46.649   5.554  1.00  0.00     0.188 HD
HETATM   23  C   UNL     1      33.106  48.630   7.220  1.00  0.00     0.127 A 
HETATM   24  N   UNL     1      32.019  48.630   8.001  1.00  0.00    -0.289 N 
ATOM     25  HN  UNL     1      31.859  49.144   8.867  1.00  0.00     0.188 HD
ENDBRANCH  13  19
ENDBRANCH  10  12
ENDBRANCH   9  10
ENDBRANCH   1   9
BRANCH   6  26
HETATM   26  C   UNL     1      35.263  44.991   9.083  1.00  0.00     0.040 A 
HETATM   27  C   UNL     1      35.688  45.776  10.140  1.00  0.00     0.024 A 
HETATM   28  N   UNL     1      36.954  46.320   9.992  1.00  0.00    -0.354 N 
HETATM   29  C   UNL     1      34.943  46.117  11.368  1.00  0.00     0.069 C 
HETATM   30  C   UNL     1      37.510  45.958   8.856  1.00  0.00     0.088 A 
ATOM     31  HN  UNL     1      37.399  46.927  10.680  1.00  0.00     0.166 HD
HETATM   32  S   UNL     1      36.525  44.906   7.919  1.00  0.00    -0.071 SA
BRANCH  30  33
HETATM   33  C   UNL     1      38.845  46.400   8.379  1.00  0.00     0.124 C 
HETATM   34  C   UNL     1      39.029  45.917   6.955  1.00  0.00     0.055 C 
BRANCH  33  35
HETATM   35  C   UNL     1      38.970  47.907   8.405  1.00  0.00     0.208 C 
BRANCH  35  36
HETATM   36  O   UNL     1      37.688  48.524   8.412  1.00  0.00    -0.397 OA
ATOM     37  HO  UNL     1      37.468  48.840   9.280  1.00  0.00     0.209 HD
ENDBRANCH  35  36
ENDBRANCH  33  35
BRANCH  33  38
HETATM   38  O   UNL     1      39.922  45.828   9.124  1.00  0.00    -0.381 OA
ATOM     39  HO  UNL     1      39.747  45.785  10.057  1.00  0.00     0.211 HD
ENDBRANCH  33  38
ENDBRANCH  30  33
ENDBRANCH   6  26
TORSDOF 9
ENDMDL
MODEL 2
REMARK VINA RESULT:    -8.081      3.765      6.805
REMARK INTER + INTRA:         -13.917
REMARK INTER:                 -12.593
REMARK INTRA:                  -1.324
REMARK UNBOUND:                -2.056
REMARK  9 active torsions:
REMARK  status: ('A' for Active; 'I' for Inactive)
REMARK    1  A    between atoms: C_1  and  O_8 
REMARK    2  A    between atoms: C_6  and  C_26 
REMARK    3  A    between atoms: O_8  and  C_10 
REMARK    4  A    between atoms: C_10  and  C_11 
REMARK    5  A    between atoms: C_13  and  N_19 
REMARK    6  A    between atoms: C_30  and  C_33 
REMARK    7  A    between atoms: C_33  and  C_34 
REMARK    8  A    between atoms: C_33  and  O_35 
REMARK    9  A    between atoms: C_34  and  O_38 
ROOT
HETATM    1  C   UNL     1      30.150  44.339   9.391  1.00  0.00     0.111 A 
HETATM    2  C   UNL     1      29.152  44.046  10.314  1.00  0.00     0.149 A 
HETATM    3  N   UNL     1      28.108  44.882  10.546  1.00  0.00    -0.351 N 
ATOM      4  HN  UNL     1      27.380  44.649  11.221  1.00  0.00     0.166 HD
HETATM    5  C   UNL     1      28.073  46.039   9.842  1.00  0.00     0.102 A 
HETATM    6  C   UNL     1      29.020  46.432   8.911  1.00  0.00     0.001 A 
HETATM    7  C   UNL     1      30.068  45.544   8.683  1.00  0.00     0.054 A 
HETATM    8  N   UNL     1      29.224  42.834  11.040  1.00  0.00    -0.080 NA
ENDROOT
BRANCH   1   9
HETATM    9  O   UNL     1      31.169  43.397   9.259  1.00  0.00    -0.338 OA
BRANCH   9  10
HETATM   10  C   UNL     1      32.144  43.665   8.248  1.00  0.00     0.160 C 
HETATM   11  C   UNL     1      32.845  42.354   7.953  1.00  0.00     0.045 C 
BRANCH  10  12
HETATM   12  C   UNL     1      33.127  44.670   8.766  1.00  0.00     0.004 A 
HETATM   13  C   UNL     1      33.722  45.631   7.925  1.00  0.00     0.084 A 
HETATM   14  C   UNL     1      34.612  46.567   8.470  1.00  0.00     0.037 A 
HETATM   15  C   UNL     1      34.877  46.565   9.842  1.00  0.00     0.044 A 
HETATM   16  C   UNL     1      34.292  45.607  10.668  1.00  0.00     0.117 A 
HETATM   17  C   UNL     1      33.422  44.653  10.135  1.00  0.00     0.054 A 
HETATM   18  F   UNL     1      34.567  45.604  11.980  1.00  0.00    -0.206 F 
BRANCH  13  19
HETATM   19  N   UNL     1      33.455  45.738   6.543  1.00  0.00    -0.197 N 
HETATM   20  N   UNL     1      32.243  46.155   6.125  1.00  0.00    -0.289 N 
HETATM   21  C   UNL     1      32.474  46.537   4.865  1.00  0.00     0.127 A 
ATOM     22  HN  UNL     1      31.364  46.175   6.642  1.00  0.00     0.188 HD
HETATM   23  C   UNL     1      33.829  46.350   4.569  1.00  0.00     0.127 A 
HETATM   24  N   UNL     1      34.451  45.863   5.649  1.00  0.00    -0.289 N 
ATOM     25  HN  UNL     1      35.440  45.641   5.766  1.00  0.00     0.188 HD
ENDBRANCH  13  19
ENDBRANCH  10  12
ENDBRANCH   9  10
ENDBRANCH   1   9
BRANCH   6  26
HETATM   26  C   UNL     1      28.944  47.718   8.220  1.00  0.00     0.040 A 
HETATM   27  C   UNL     1      27.887  48.433   7.684  1.00  0.00     0.024 A 
HETATM   28  N   UNL     1      28.239  49.621   7.063  1.00  0.00    -0.354 N 
HETATM   29  C   UNL     1      26.459  48.061   7.673  1.00  0.00     0.069 C 
HETATM   30  C   UNL     1      29.536  49.837   7.125  1.00  0.00     0.088 A 
ATOM     31  HN  UNL     1      27.574  50.250   6.613  1.00  0.00     0.166 HD
HETATM   32  S   UNL     1      30.392  48.611   7.974  1.00  0.00    -0.071 SA
BRANCH  30  33
HETATM   33  C   UNL     1      30.238  50.998   6.523  1.00  0.00     0.124 C 
HETATM   34  C   UNL     1      31.573  50.525   5.983  1.00  0.00     0.055 C 
BRANCH  33  35
HETATM   35  C   UNL     1      29.438  51.603   5.391  1.00  0.00     0.208 C 
BRANCH  35  36
HETATM   36  O   UNL     1      29.348  50.701   4.294  1.00  0.00    -0.397 OA
ATOM     37  HO  UNL     1      28.442  50.567   4.039  1.00  0.00     0.209 HD
ENDBRANCH  35  36
ENDBRANCH  33  35
BRANCH  33  38
HETATM   38  O   UNL     1      30.547  52.020   7.475  1.00  0.00    -0.381 OA
ATOM     39  HO  UNL     1      29.773  52.404   7.871  1.00  0.00     0.211 HD
ENDBRANCH  33  38
ENDBRANCH  30  33
ENDBRANCH   6  26
TORSDOF 9
ENDMDL
MODEL 3
REMARK VINA RESULT:    -7.855      2.322      4.473
REMARK INTER + INTRA:         -13.585
REMARK INTER:                 -12.228
REMARK INTRA:                  -1.357
REMARK UNBOUND:                -2.056
REMARK  9 active torsions:
REMARK  status: ('A' for Active; 'I' for Inactive)
REMARK    1  A    between atoms: C_1  and  O_8 
REMARK    2  A    between atoms: C_6  and  C_26 
REMARK    3  A    between atoms: O_8  and  C_10 
REMARK    4  A    between atoms: C_10  and  C_11 
REMARK    5  A    between atoms: C_13  and  N_19 
REMARK    6  A    between atoms: C_30  and  C_33 
REMARK    7  A    between atoms: C_33  and  C_34 
REMARK    8  A    between atoms: C_33  and  O_35 
REMARK    9  A    between atoms: C_34  and  O_38 
ROOT
HETATM    1  C   UNL     1      33.818  47.289   7.914  1.00  0.00     0.111 A 
HETATM    2  C   UNL     1      33.991  48.548   7.348  1.00  0.00     0.149 A 
HETATM    3  N   UNL     1      35.200  48.991   6.918  1.00  0.00    -0.351 N 
ATOM      4  HN  UNL     1      35.309  49.914   6.498  1.00  0.00     0.166 HD
HETATM    5  C   UNL     1      36.257  48.156   7.069  1.00  0.00     0.102 A 
HETATM    6  C   UNL     1      36.195  46.891   7.630  1.00  0.00     0.001 A 
HETATM    7  C   UNL     1      34.939  46.459   8.044  1.00  0.00     0.054 A 
HETATM    8  N   UNL     1      32.870  49.398   7.214  1.00  0.00    -0.080 NA
ENDROOT
BRANCH   1   9
HETATM    9  O   UNL     1      32.526  46.964   8.321  1.00  0.00    -0.338 OA
BRANCH   9  10
HETATM   10  C   UNL     1      31.965  45.781   7.745  1.00  0.00     0.160 C 
HETATM   11  C   UNL     1      31.455  46.159   6.370  1.00  0.00     0.045 C 
BRANCH  10  12
HETATM   12  C   UNL     1      30.832  45.306   8.603  1.00  0.00     0.004 A 
HETATM   13  C   UNL     1      30.935  44.148   9.399  1.00  0.00     0.084 A 
HETATM   14  C   UNL     1      29.854  43.767  10.205  1.00  0.00     0.037 A 
HETATM   15  C   UNL     1      28.698  44.552  10.243  1.00  0.00     0.044 A 
HETATM   16  C   UNL     1      28.598  45.692   9.448  1.00  0.00     0.117 A 
HETATM   17  C   UNL     1      29.659  46.071   8.621  1.00  0.00     0.054 A 
HETATM   18  F   UNL     1      27.478  46.428   9.480  1.00  0.00    -0.206 F 
BRANCH  13  19
HETATM   19  N   UNL     1      32.092  43.341   9.463  1.00  0.00    -0.197 N 
HETATM   20  N   UNL     1      32.390  42.515   8.439  1.00  0.00    -0.289 N 
HETATM   21  C   UNL     1      33.688  42.259   8.628  1.00  0.00     0.127 A 
ATOM     22  HN  UNL     1      31.775  42.170   7.702  1.00  0.00     0.188 HD
HETATM   23  C   UNL     1      34.136  42.955   9.756  1.00  0.00     0.127 A 
HETATM   24  N   UNL     1      33.119  43.660  10.269  1.00  0.00    -0.289 N 
ATOM     25  HN  UNL     1      33.123  44.286  11.074  1.00  0.00     0.188 HD
ENDBRANCH  13  19
ENDBRANCH  10  12
ENDBRANCH   9  10
ENDBRANCH   1   9
BRANCH   6  26
HETATM   26  C   UNL     1      37.385  46.060   7.804  1.00  0.00     0.040 A 
HETATM   27  C   UNL     1      37.628  44.714   7.593  1.00  0.00     0.024 A 
HETATM   28  N   UNL     1      38.906  44.291   7.922  1.00  0.00    -0.354 N 
HETATM   29  C   UNL     1      36.684  43.694   7.096  1.00  0.00     0.069 C 
HETATM   30  C   UNL     1      39.648  45.283   8.365  1.00  0.00     0.088 A 
ATOM     31  HN  UNL     1      39.231  43.328   7.832  1.00  0.00     0.166 HD
HETATM   32  S   UNL     1      38.831  46.795   8.374  1.00  0.00    -0.071 SA
BRANCH  30  33
HETATM   33  C   UNL     1      41.050  45.157   8.837  1.00  0.00     0.124 C 
HETATM   34  C   UNL     1      41.857  44.458   7.761  1.00  0.00     0.055 C 
BRANCH  33  35
HETATM   35  C   UNL     1      41.666  46.511   9.110  1.00  0.00     0.208 C 
BRANCH  35  36
HETATM   36  O   UNL     1      42.199  46.570  10.428  1.00  0.00    -0.397 OA
ATOM     37  HO  UNL     1      42.888  47.221  10.486  1.00  0.00     0.209 HD
ENDBRANCH  35  36
ENDBRANCH  33  35
BRANCH  33  38
HETATM   38  O   UNL     1      41.176  44.341  10.004  1.00  0.00    -0.381 OA
ATOM     39  HO  UNL     1      41.947  44.548  10.520  1.00  0.00     0.211 HD
ENDBRANCH  33  38
ENDBRANCH  30  33
ENDBRANCH   6  26
TORSDOF 9
ENDMDL
MODEL 4
REMARK VINA RESULT:    -7.657      3.446      8.182
REMARK INTER + INTRA:         -13.294
REMARK INTER:                 -11.723
REMARK INTRA:                  -1.571
REMARK UNBOUND:                -2.056
REMARK  9 active torsions:
REMARK  status: ('A' for Active; 'I' for Inactive)
REMARK    1  A    between atoms: C_1  and  O_8 
REMARK    2  A    between atoms: C_6  and  C_26 
REMARK    3  A    between atoms: O_8  and  C_10 
REMARK    4  A    between atoms: C_10  and  C_11 
REMARK    5  A    between atoms: C_13  and  N_19 
REMARK    6  A    between atoms: C_30  and  C_33 
REMARK    7  A    between atoms: C_33  and  C_34 
REMARK    8  A    between atoms: C_33  and  O_35 
REMARK    9  A    between atoms: C_34  and  O_38 
ROOT
HETATM    1  C   UNL     1      32.920  47.413   7.238  1.00  0.00     0.111 A 
HETATM    2  C   UNL     1      33.234  47.676   5.909  1.00  0.00     0.149 A 
HETATM    3  N   UNL     1      32.333  48.200   5.040  1.00  0.00    -0.351 N 
ATOM      4  HN  UNL     1      32.582  48.395   4.070  1.00  0.00     0.166 HD
HETATM    5  C   UNL     1      31.089  48.455   5.513  1.00  0.00     0.102 A 
HETATM    6  C   UNL     1      30.670  48.218   6.812  1.00  0.00     0.001 A 
HETATM    7  C   UNL     1      31.623  47.698   7.684  1.00  0.00     0.054 A 
HETATM    8  N   UNL     1      34.538  47.390   5.444  1.00  0.00    -0.080 NA
ENDROOT
BRANCH   1   9
HETATM    9  O   UNL     1      33.936  46.866   8.019  1.00  0.00    -0.338 OA
BRANCH   9  10
HETATM   10  C   UNL     1      33.519  46.202   9.216  1.00  0.00     0.160 C 
HETATM   11  C   UNL     1      34.749  46.057  10.090  1.00  0.00     0.045 C 
BRANCH  10  12
HETATM   12  C   UNL     1      32.974  44.851   8.864  1.00  0.00     0.004 A 
HETATM   13  C   UNL     1      33.716  43.924   8.105  1.00  0.00     0.084 A 
HETATM   14  C   UNL     1      33.169  42.664   7.831  1.00  0.00     0.037 A 
HETATM   15  C   UNL     1      31.912  42.320   8.339  1.00  0.00     0.044 A 
HETATM   16  C   UNL     1      31.180  43.243   9.083  1.00  0.00     0.117 A 
HETATM   17  C   UNL     1      31.703  44.513   9.343  1.00  0.00     0.054 A 
HETATM   18  F   UNL     1      29.969  42.908   9.551  1.00  0.00    -0.206 F 
BRANCH  13  19
HETATM   19  N   UNL     1      35.015  44.174   7.613  1.00  0.00    -0.197 N 
HETATM   20  N   UNL     1      36.074  43.552   8.171  1.00  0.00    -0.289 N 
HETATM   21  C   UNL     1      37.020  43.670   7.234  1.00  0.00     0.127 A 
ATOM     22  HN  UNL     1      36.137  43.101   9.083  1.00  0.00     0.188 HD
HETATM   23  C   UNL     1      36.493  44.351   6.130  1.00  0.00     0.127 A 
HETATM   24  N   UNL     1      35.209  44.647   6.370  1.00  0.00    -0.289 N 
ATOM     25  HN  UNL     1      34.542  45.117   5.759  1.00  0.00     0.188 HD
ENDBRANCH  13  19
ENDBRANCH  10  12
ENDBRANCH   9  10
ENDBRANCH   1   9
BRANCH   6  26
HETATM   26  C   UNL     1      29.297  48.474   7.245  1.00  0.00     0.040 A 
HETATM   27  C   UNL     1      28.463  47.833   8.144  1.00  0.00     0.024 A 
HETATM   28  N   UNL     1      27.191  48.372   8.248  1.00  0.00    -0.354 N 
HETATM   29  C   UNL     1      28.764  46.644   8.965  1.00  0.00     0.069 C 
HETATM   30  C   UNL     1      27.038  49.416   7.461  1.00  0.00     0.088 A 
ATOM     31  HN  UNL     1      26.462  48.004   8.859  1.00  0.00     0.166 HD
HETATM   32  S   UNL     1      28.455  49.813   6.573  1.00  0.00    -0.071 SA
BRANCH  30  33
HETATM   33  C   UNL     1      25.783  50.194   7.308  1.00  0.00     0.124 C 
HETATM   34  C   UNL     1      25.723  50.734   5.893  1.00  0.00     0.055 C 
BRANCH  33  35
HETATM   35  C   UNL     1      24.565  49.333   7.557  1.00  0.00     0.208 C 
BRANCH  35  36
HETATM   36  O   UNL     1      24.609  48.149   6.769  1.00  0.00    -0.397 OA
ATOM     37  HO  UNL     1      25.441  47.703   6.875  1.00  0.00     0.209 HD
ENDBRANCH  35  36
ENDBRANCH  33  35
BRANCH  33  38
HETATM   38  O   UNL     1      25.728  51.339   8.161  1.00  0.00    -0.381 OA
ATOM     39  HO  UNL     1      26.492  51.424   8.720  1.00  0.00     0.211 HD
ENDBRANCH  33  38
ENDBRANCH  30  33
ENDBRANCH   6  26
TORSDOF 9
ENDMDL
MODEL 5
REMARK VINA RESULT:    -7.586      3.824      7.084
REMARK INTER + INTRA:         -13.190
REMARK INTER:                 -11.650
REMARK INTRA:                  -1.540
REMARK UNBOUND:                -2.056
REMARK  9 active torsions:
REMARK  status: ('A' for Active; 'I' for Inactive)
REMARK    1  A    between atoms: C_1  and  O_8 
REMARK    2  A    between atoms: C_6  and  C_26 
REMARK    3  A    between atoms: O_8  and  C_10 
REMARK    4  A    between atoms: C_10  and  C_11 
REMARK    5  A    between atoms: C_13  and  N_19 
REMARK    6  A    between atoms: C_30  and  C_33 
REMARK    7  A    between atoms: C_33  and  C_34 
REMARK    8  A    between atoms: C_33  and  O_35 
REMARK    9  A    between atoms: C_34  and  O_38 
ROOT
HETATM    1  C   UNL     1      29.504  46.182   8.941  1.00  0.00     0.111 A 
HETATM    2  C   UNL     1      28.201  46.041   9.406  1.00  0.00     0.149 A 
HETATM    3  N   UNL     1      27.217  46.919   9.086  1.00  0.00    -0.351 N 
ATOM      4  HN  UNL     1      26.264  46.797   9.429  1.00  0.00     0.166 HD
HETATM    5  C   UNL     1      27.552  47.964   8.291  1.00  0.00     0.102 A 
HETATM    6  C   UNL     1      28.820  48.203   7.787  1.00  0.00     0.001 A 
HETATM    7  C   UNL     1      29.802  47.275   8.118  1.00  0.00     0.054 A 
HETATM    8  N   UNL     1      27.887  44.945  10.242  1.00  0.00    -0.080 NA
ENDROOT
BRANCH   1   9
HETATM    9  O   UNL     1      30.418  45.214   9.354  1.00  0.00    -0.338 OA
BRANCH   9  10
HETATM   10  C   UNL     1      31.442  44.876   8.414  1.00  0.00     0.160 C 
HETATM   11  C   UNL     1      31.479  43.363   8.328  1.00  0.00     0.045 C 
BRANCH  10  12
HETATM   12  C   UNL     1      32.757  45.396   8.910  1.00  0.00     0.004 A 
HETATM   13  C   UNL     1      33.626  46.132   8.081  1.00  0.00     0.084 A 
HETATM   14  C   UNL     1      34.830  46.620   8.606  1.00  0.00     0.037 A 
HETATM   15  C   UNL     1      35.145  46.407   9.951  1.00  0.00     0.044 A 
HETATM   16  C   UNL     1      34.285  45.672  10.765  1.00  0.00     0.117 A 
HETATM   17  C   UNL     1      33.093  45.158  10.248  1.00  0.00     0.054 A 
HETATM   18  F   UNL     1      34.606  45.460  12.049  1.00  0.00    -0.206 F 
BRANCH  13  19
HETATM   19  N   UNL     1      33.348  46.443   6.732  1.00  0.00    -0.197 N 
HETATM   20  N   UNL     1      33.472  47.714   6.298  1.00  0.00    -0.289 N 
HETATM   21  C   UNL     1      33.560  47.571   4.972  1.00  0.00     0.127 A 
ATOM     22  HN  UNL     1      33.494  48.573   6.847  1.00  0.00     0.188 HD
HETATM   23  C   UNL     1      33.500  46.211   4.650  1.00  0.00     0.127 A 
HETATM   24  N   UNL     1      33.389  45.498   5.777  1.00  0.00    -0.289 N 
ATOM     25  HN  UNL     1      33.345  44.485   5.886  1.00  0.00     0.188 HD
ENDBRANCH  13  19
ENDBRANCH  10  12
ENDBRANCH   9  10
ENDBRANCH   1   9
BRANCH   6  26
HETATM   26  C   UNL     1      29.122  49.379   6.971  1.00  0.00     0.040 A 
HETATM   27  C   UNL     1      28.320  50.296   6.317  1.00  0.00     0.024 A 
HETATM   28  N   UNL     1      29.004  51.266   5.601  1.00  0.00    -0.354 N 
HETATM   29  C   UNL     1      26.845  50.335   6.271  1.00  0.00     0.069 C 
HETATM   30  C   UNL     1      30.308  51.120   5.706  1.00  0.00     0.088 A 
ATOM     31  HN  UNL     1      28.552  52.003   5.060  1.00  0.00     0.166 HD
HETATM   32  S   UNL     1      30.767  49.804   6.712  1.00  0.00    -0.071 SA
BRANCH  30  33
HETATM   33  C   UNL     1      31.320  51.970   5.030  1.00  0.00     0.124 C 
HETATM   34  C   UNL     1      32.434  51.077   4.522  1.00  0.00     0.055 C 
BRANCH  33  35
HETATM   35  C   UNL     1      30.721  52.720   3.862  1.00  0.00     0.208 C 
BRANCH  35  36
HETATM   36  O   UNL     1      30.221  51.818   2.881  1.00  0.00    -0.397 OA
ATOM     37  HO  UNL     1      29.276  51.740   2.943  1.00  0.00     0.209 HD
ENDBRANCH  35  36
ENDBRANCH  33  35
BRANCH  33  38
HETATM   38  O   UNL     1      31.946  52.903   5.913  1.00  0.00    -0.381 OA
ATOM     39  HO  UNL     1      31.597  53.783   5.832  1.00  0.00     0.211 HD
ENDBRANCH  33  38
ENDBRANCH  30  33
ENDBRANCH   6  26
TORSDOF 9
ENDMDL
MODEL 6
REMARK VINA RESULT:    -7.546      2.312      4.609
REMARK INTER + INTRA:         -13.131
REMARK INTER:                 -11.459
REMARK INTRA:                  -1.671
REMARK UNBOUND:                -2.056
REMARK  9 active torsions:
REMARK  status: ('A' for Active; 'I' for Inactive)
REMARK    1  A    between atoms: C_1  and  O_8 
REMARK    2  A    between atoms: C_6  and  C_26 
REMARK    3  A    between atoms: O_8  and  C_10 
REMARK    4  A    between atoms: C_10  and  C_11 
REMARK    5  A    between atoms: C_13  and  N_19 
REMARK    6  A    between atoms: C_30  and  C_33 
REMARK    7  A    between atoms: C_33  and  C_34 
REMARK    8  A    between atoms: C_33  and  O_35 
REMARK    9  A    between atoms: C_34  and  O_38 
ROOT
HETATM    1  C   UNL     1      33.431  47.267   7.837  1.00  0.00     0.111 A 
HETATM    2  C   UNL     1      33.585  48.563   7.356  1.00  0.00     0.149 A 
HETATM    3  N   UNL     1      34.773  49.029   6.892  1.00  0.00    -0.351 N 
ATOM      4  HN  UNL     1      34.868  49.980   6.535  1.00  0.00     0.166 HD
HETATM    5  C   UNL     1      35.827  48.178   6.921  1.00  0.00     0.102 A 
HETATM    6  C   UNL     1      35.783  46.876   7.391  1.00  0.00     0.001 A 
HETATM    7  C   UNL     1      34.547  46.423   7.843  1.00  0.00     0.054 A 
HETATM    8  N   UNL     1      32.467  49.429   7.349  1.00  0.00    -0.080 NA
ENDROOT
BRANCH   1   9
HETATM    9  O   UNL     1      32.159  46.923   8.292  1.00  0.00    -0.338 OA
BRANCH   9  10
HETATM   10  C   UNL     1      31.591  45.737   7.729  1.00  0.00     0.160 C 
HETATM   11  C   UNL     1      30.947  46.137   6.417  1.00  0.00     0.045 C 
BRANCH  10  12
HETATM   12  C   UNL     1      30.557  45.193   8.667  1.00  0.00     0.004 A 
HETATM   13  C   UNL     1      30.791  44.045   9.448  1.00  0.00     0.084 A 
HETATM   14  C   UNL     1      29.799  43.598  10.331  1.00  0.00     0.037 A 
HETATM   15  C   UNL     1      28.602  44.309  10.458  1.00  0.00     0.044 A 
HETATM   16  C   UNL     1      28.373  45.440   9.677  1.00  0.00     0.117 A 
HETATM   17  C   UNL     1      29.343  45.883   8.774  1.00  0.00     0.054 A 
HETATM   18  F   UNL     1      27.214  46.105   9.795  1.00  0.00    -0.206 F 
BRANCH  13  19
HETATM   19  N   UNL     1      31.997  43.311   9.423  1.00  0.00    -0.197 N 
HETATM   20  N   UNL     1      32.318  42.586   8.332  1.00  0.00    -0.289 N 
HETATM   21  C   UNL     1      33.634  42.401   8.470  1.00  0.00     0.127 A 
ATOM     22  HN  UNL     1      31.706  42.259   7.585  1.00  0.00     0.188 HD
HETATM   23  C   UNL     1      34.069  43.037   9.639  1.00  0.00     0.127 A 
HETATM   24  N   UNL     1      33.025  43.633  10.227  1.00  0.00    -0.289 N 
ATOM     25  HN  UNL     1      33.012  44.195  11.078  1.00  0.00     0.188 HD
ENDBRANCH  13  19
ENDBRANCH  10  12
ENDBRANCH   9  10
ENDBRANCH   1   9
BRANCH   6  26
HETATM   26  C   UNL     1      36.972  46.026   7.437  1.00  0.00     0.040 A 
HETATM   27  C   UNL     1      38.261  46.242   7.892  1.00  0.00     0.024 A 
HETATM   28  N   UNL     1      39.128  45.175   7.720  1.00  0.00    -0.354 N 
HETATM   29  C   UNL     1      38.811  47.471   8.496  1.00  0.00     0.069 C 
HETATM   30  C   UNL     1      38.529  44.145   7.160  1.00  0.00     0.088 A 
ATOM     31  HN  UNL     1      40.111  45.186   7.995  1.00  0.00     0.166 HD
HETATM   32  S   UNL     1      36.863  44.418   6.840  1.00  0.00    -0.071 SA
BRANCH  30  33
HETATM   33  C   UNL     1      39.188  42.863   6.806  1.00  0.00     0.124 C 
HETATM   34  C   UNL     1      39.174  42.718   5.298  1.00  0.00     0.055 C 
BRANCH  33  35
HETATM   35  C   UNL     1      40.620  42.824   7.290  1.00  0.00     0.208 C 
BRANCH  35  36
HETATM   36  O   UNL     1      40.675  42.757   8.710  1.00  0.00    -0.397 OA
ATOM     37  HO  UNL     1      40.133  42.049   9.037  1.00  0.00     0.209 HD
ENDBRANCH  35  36
ENDBRANCH  33  35
BRANCH  33  38
HETATM   38  O   UNL     1      38.493  41.720   7.310  1.00  0.00    -0.381 OA
ATOM     39  HO  UNL     1      38.463  41.000   6.691  1.00  0.00     0.211 HD
ENDBRANCH  33  38
ENDBRANCH  30  33
ENDBRANCH   6  26
TORSDOF 9
ENDMDL
MODEL 7
REMARK VINA RESULT:    -7.510      1.572      1.979
REMARK INTER + INTRA:         -13.078
REMARK INTER:                 -11.156
REMARK INTRA:                  -1.922
REMARK UNBOUND:                -2.056
REMARK  9 active torsions:
REMARK  status: ('A' for Active; 'I' for Inactive)
REMARK    1  A    between atoms: C_1  and  O_8 
REMARK    2  A    between atoms: C_6  and  C_26 
REMARK    3  A    between atoms: O_8  and  C_10 
REMARK    4  A    between atoms: C_10  and  C_11 
REMARK    5  A    between atoms: C_13  and  N_19 
REMARK    6  A    between atoms: C_30  and  C_33 
REMARK    7  A    between atoms: C_33  and  C_34 
REMARK    8  A    between atoms: C_33  and  O_35 
REMARK    9  A    between atoms: C_34  and  O_38 
ROOT
HETATM    1  C   UNL     1      31.005  46.039   8.023  1.00  0.00     0.111 A 
HETATM    2  C   UNL     1      30.521  44.780   8.362  1.00  0.00     0.149 A 
HETATM    3  N   UNL     1      31.292  43.847   8.977  1.00  0.00    -0.351 N 
ATOM      4  HN  UNL     1      30.919  42.931   9.226  1.00  0.00     0.166 HD
HETATM    5  C   UNL     1      32.576  44.184   9.248  1.00  0.00     0.102 A 
HETATM    6  C   UNL     1      33.159  45.402   8.942  1.00  0.00     0.001 A 
HETATM    7  C   UNL     1      32.338  46.343   8.328  1.00  0.00     0.054 A 
HETATM    8  N   UNL     1      29.179  44.457   8.056  1.00  0.00    -0.080 NA
ENDROOT
BRANCH   1   9
HETATM    9  O   UNL     1      30.110  46.896   7.386  1.00  0.00    -0.338 OA
BRANCH   9  10
HETATM   10  C   UNL     1      29.788  48.101   8.087  1.00  0.00     0.160 C 
HETATM   11  C   UNL     1      28.735  47.743   9.117  1.00  0.00     0.045 C 
BRANCH  10  12
HETATM   12  C   UNL     1      29.241  49.104   7.117  1.00  0.00     0.004 A 
HETATM   13  C   UNL     1      30.045  49.688   6.119  1.00  0.00     0.084 A 
HETATM   14  C   UNL     1      29.474  50.598   5.219  1.00  0.00     0.037 A 
HETATM   15  C   UNL     1      28.110  50.894   5.294  1.00  0.00     0.044 A 
HETATM   16  C   UNL     1      27.321  50.319   6.288  1.00  0.00     0.117 A 
HETATM   17  C   UNL     1      27.882  49.429   7.208  1.00  0.00     0.054 A 
HETATM   18  F   UNL     1      26.017  50.623   6.361  1.00  0.00    -0.206 F 
BRANCH  13  19
HETATM   19  N   UNL     1      31.414  49.391   5.940  1.00  0.00    -0.197 N 
HETATM   20  N   UNL     1      31.786  48.471   5.026  1.00  0.00    -0.289 N 
HETATM   21  C   UNL     1      33.078  48.752   4.826  1.00  0.00     0.127 A 
ATOM     22  HN  UNL     1      31.221  47.742   4.593  1.00  0.00     0.188 HD
HETATM   23  C   UNL     1      33.440  49.847   5.620  1.00  0.00     0.127 A 
HETATM   24  N   UNL     1      32.369  50.262   6.308  1.00  0.00    -0.289 N 
ATOM     25  HN  UNL     1      32.296  51.047   6.954  1.00  0.00     0.188 HD
ENDBRANCH  13  19
ENDBRANCH  10  12
ENDBRANCH   9  10
ENDBRANCH   1   9
BRANCH   6  26
HETATM   26  C   UNL     1      34.567  45.682   9.222  1.00  0.00     0.040 A 
HETATM   27  C   UNL     1      35.234  46.070  10.370  1.00  0.00     0.024 A 
HETATM   28  N   UNL     1      36.596  46.276  10.213  1.00  0.00    -0.354 N 
HETATM   29  C   UNL     1      34.662  46.316  11.708  1.00  0.00     0.069 C 
HETATM   30  C   UNL     1      36.985  46.041   8.978  1.00  0.00     0.088 A 
ATOM     31  HN  UNL     1      37.219  46.574  10.964  1.00  0.00     0.166 HD
HETATM   32  S   UNL     1      35.710  45.524   7.948  1.00  0.00    -0.071 SA
BRANCH  30  33
HETATM   33  C   UNL     1      38.372  46.205   8.474  1.00  0.00     0.124 C 
HETATM   34  C   UNL     1      38.390  45.855   7.000  1.00  0.00     0.055 C 
BRANCH  33  35
HETATM   35  C   UNL     1      38.857  47.627   8.646  1.00  0.00     0.208 C 
BRANCH  35  36
HETATM   36  O   UNL     1      37.792  48.553   8.467  1.00  0.00    -0.397 OA
ATOM     37  HO  UNL     1      37.621  49.032   9.270  1.00  0.00     0.209 HD
ENDBRANCH  35  36
ENDBRANCH  33  35
BRANCH  33  38
HETATM   38  O   UNL     1      39.302  45.315   9.094  1.00  0.00    -0.381 OA
ATOM     39  HO  UNL     1      39.742  45.700   9.844  1.00  0.00     0.211 HD
ENDBRANCH  33  38
ENDBRANCH  30  33
ENDBRANCH   6  26
TORSDOF 9
ENDMDL
MODEL 8
REMARK VINA RESULT:    -7.444      2.221      4.627
REMARK INTER + INTRA:         -12.981
REMARK INTER:                 -11.774
REMARK INTRA:                  -1.207
REMARK UNBOUND:                -2.056
REMARK  9 active torsions:
REMARK  status: ('A' for Active; 'I' for Inactive)
REMARK    1  A    between atoms: C_1  and  O_8 
REMARK    2  A    between atoms: C_6  and  C_26 
REMARK    3  A    between atoms: O_8  and  C_10 
REMARK    4  A    between atoms: C_10  and  C_11 
REMARK    5  A    between atoms: C_13  and  N_19 
REMARK    6  A    between atoms: C_30  and  C_33 
REMARK    7  A    between atoms: C_33  and  C_34 
REMARK    8  A    between atoms: C_33  and  O_35 
REMARK    9  A    between atoms: C_34  and  O_38 
ROOT
HETATM    1  C   UNL     1      33.164  48.030   7.819  1.00  0.00     0.111 A 
HETATM    2  C   UNL     1      32.899  49.195   7.106  1.00  0.00     0.149 A 
HETATM    3  N   UNL     1      33.885  49.964   6.579  1.00  0.00    -0.351 N 
ATOM      4  HN  UNL     1      33.674  50.812   6.052  1.00  0.00     0.166 HD
HETATM    5  C   UNL     1      35.163  49.560   6.781  1.00  0.00     0.102 A 
HETATM    6  C   UNL     1      35.535  48.426   7.485  1.00  0.00     0.001 A 
HETATM    7  C   UNL     1      34.500  47.649   7.996  1.00  0.00     0.054 A 
HETATM    8  N   UNL     1      31.555  49.595   6.923  1.00  0.00    -0.080 NA
ENDROOT
BRANCH   1   9
HETATM    9  O   UNL     1      32.059  47.341   8.313  1.00  0.00    -0.338 OA
BRANCH   9  10
HETATM   10  C   UNL     1      31.985  45.952   7.979  1.00  0.00     0.160 C 
HETATM   11  C   UNL     1      31.674  45.871   6.498  1.00  0.00     0.045 C 
BRANCH  10  12
HETATM   12  C   UNL     1      30.885  45.313   8.772  1.00  0.00     0.004 A 
HETATM   13  C   UNL     1      31.086  44.120   9.494  1.00  0.00     0.084 A 
HETATM   14  C   UNL     1      30.031  43.583  10.243  1.00  0.00     0.037 A 
HETATM   15  C   UNL     1      28.802  44.247  10.299  1.00  0.00     0.044 A 
HETATM   16  C   UNL     1      28.607  45.422   9.576  1.00  0.00     0.117 A 
HETATM   17  C   UNL     1      29.642  45.956   8.805  1.00  0.00     0.054 A 
HETATM   18  F   UNL     1      27.418  46.041   9.622  1.00  0.00    -0.206 F 
BRANCH  13  19
HETATM   19  N   UNL     1      32.315  43.427   9.540  1.00  0.00    -0.197 N 
HETATM   20  N   UNL     1      32.712  42.697   8.477  1.00  0.00    -0.289 N 
HETATM   21  C   UNL     1      34.026  42.559   8.683  1.00  0.00     0.127 A 
ATOM     22  HN  UNL     1      32.149  42.339   7.707  1.00  0.00     0.188 HD
HETATM   23  C   UNL     1      34.381  43.225   9.860  1.00  0.00     0.127 A 
HETATM   24  N   UNL     1      33.291  43.795  10.388  1.00  0.00    -0.289 N 
ATOM     25  HN  UNL     1      33.218  44.369  11.228  1.00  0.00     0.188 HD
ENDBRANCH  13  19
ENDBRANCH  10  12
ENDBRANCH   9  10
ENDBRANCH   1   9
BRANCH   6  26
HETATM   26  C   UNL     1      36.937  48.073   7.704  1.00  0.00     0.040 A 
HETATM   27  C   UNL     1      38.099  48.824   7.731  1.00  0.00     0.024 A 
HETATM   28  N   UNL     1      39.260  48.097   7.935  1.00  0.00    -0.354 N 
HETATM   29  C   UNL     1      38.237  50.281   7.537  1.00  0.00     0.069 C 
HETATM   30  C   UNL     1      39.012  46.812   8.079  1.00  0.00     0.088 A 
ATOM     31  HN  UNL     1      40.194  48.507   7.969  1.00  0.00     0.166 HD
HETATM   32  S   UNL     1      37.339  46.429   8.003  1.00  0.00    -0.071 SA
BRANCH  30  33
HETATM   33  C   UNL     1      40.041  45.760   8.274  1.00  0.00     0.124 C 
HETATM   34  C   UNL     1      40.045  44.862   7.053  1.00  0.00     0.055 C 
BRANCH  33  35
HETATM   35  C   UNL     1      41.419  46.359   8.448  1.00  0.00     0.208 C 
BRANCH  35  36
HETATM   36  O   UNL     1      41.673  46.660   9.815  1.00  0.00    -0.397 OA
ATOM     37  HO  UNL     1      41.156  46.105  10.386  1.00  0.00     0.209 HD
ENDBRANCH  35  36
ENDBRANCH  33  35
BRANCH  33  38
HETATM   38  O   UNL     1      39.761  44.903   9.383  1.00  0.00    -0.381 OA
ATOM     39  HO  UNL     1      38.936  45.105   9.810  1.00  0.00     0.211 HD
ENDBRANCH  33  38
ENDBRANCH  30  33
ENDBRANCH   6  26
TORSDOF 9
ENDMDL
MODEL 9
REMARK VINA RESULT:    -7.429      3.996      6.085
REMARK INTER + INTRA:         -12.959
REMARK INTER:                 -11.054
REMARK INTRA:                  -1.905
REMARK UNBOUND:                -2.056
REMARK  9 active torsions:
REMARK  status: ('A' for Active; 'I' for Inactive)
REMARK    1  A    between atoms: C_1  and  O_8 
REMARK    2  A    between atoms: C_6  and  C_26 
REMARK    3  A    between atoms: O_8  and  C_10 
REMARK    4  A    between atoms: C_10  and  C_11 
REMARK    5  A    between atoms: C_13  and  N_19 
REMARK    6  A    between atoms: C_30  and  C_33 
REMARK    7  A    between atoms: C_33  and  C_34 
REMARK    8  A    between atoms: C_33  and  O_35 
REMARK    9  A    between atoms: C_34  and  O_38 
ROOT
HETATM    1  C   UNL     1      36.023  46.446   7.617  1.00  0.00     0.111 A 
HETATM    2  C   UNL     1      37.018  45.929   6.793  1.00  0.00     0.149 A 
HETATM    3  N   UNL     1      37.758  46.712   5.969  1.00  0.00    -0.351 N 
ATOM      4  HN  UNL     1      38.490  46.318   5.377  1.00  0.00     0.166 HD
HETATM    5  C   UNL     1      37.487  48.040   5.965  1.00  0.00     0.102 A 
HETATM    6  C   UNL     1      36.511  48.653   6.734  1.00  0.00     0.001 A 
HETATM    7  C   UNL     1      35.782  47.825   7.582  1.00  0.00     0.054 A 
HETATM    8  N   UNL     1      37.269  44.537   6.814  1.00  0.00    -0.080 NA
ENDROOT
BRANCH   1   9
HETATM    9  O   UNL     1      35.332  45.529   8.406  1.00  0.00    -0.338 OA
BRANCH   9  10
HETATM   10  C   UNL     1      34.364  46.078   9.304  1.00  0.00     0.160 C 
HETATM   11  C   UNL     1      34.972  46.027  10.692  1.00  0.00     0.045 C 
BRANCH  10  12
HETATM   12  C   UNL     1      33.119  45.244   9.256  1.00  0.00     0.004 A 
HETATM   13  C   UNL     1      32.244  45.278   8.152  1.00  0.00     0.084 A 
HETATM   14  C   UNL     1      31.110  44.456   8.147  1.00  0.00     0.037 A 
HETATM   15  C   UNL     1      30.872  43.584   9.214  1.00  0.00     0.044 A 
HETATM   16  C   UNL     1      31.737  43.560  10.306  1.00  0.00     0.117 A 
HETATM   17  C   UNL     1      32.858  44.393  10.337  1.00  0.00     0.054 A 
HETATM   18  F   UNL     1      31.489  42.733  11.332  1.00  0.00    -0.206 F 
BRANCH  13  19
HETATM   19  N   UNL     1      32.451  46.083   7.011  1.00  0.00    -0.197 N 
HETATM   20  N   UNL     1      33.191  45.614   5.985  1.00  0.00    -0.289 N 
HETATM   21  C   UNL     1      32.828  46.402   4.968  1.00  0.00     0.127 A 
ATOM     22  HN  UNL     1      33.862  44.846   5.986  1.00  0.00     0.188 HD
HETATM   23  C   UNL     1      31.866  47.315   5.413  1.00  0.00     0.127 A 
HETATM   24  N   UNL     1      31.614  47.091   6.709  1.00  0.00    -0.289 N 
ATOM     25  HN  UNL     1      30.950  47.567   7.318  1.00  0.00     0.188 HD
ENDBRANCH  13  19
ENDBRANCH  10  12
ENDBRANCH   9  10
ENDBRANCH   1   9
BRANCH   6  26
HETATM   26  C   UNL     1      36.240  50.087   6.646  1.00  0.00     0.040 A 
HETATM   27  C   UNL     1      35.194  50.811   6.101  1.00  0.00     0.024 A 
HETATM   28  N   UNL     1      35.329  52.187   6.187  1.00  0.00    -0.354 N 
HETATM   29  C   UNL     1      33.992  50.289   5.423  1.00  0.00     0.069 C 
HETATM   30  C   UNL     1      36.443  52.531   6.797  1.00  0.00     0.088 A 
ATOM     31  HN  UNL     1      34.647  52.853   5.822  1.00  0.00     0.166 HD
HETATM   32  S   UNL     1      37.374  51.186   7.325  1.00  0.00    -0.071 SA
BRANCH  30  33
HETATM   33  C   UNL     1      36.903  53.926   7.015  1.00  0.00     0.124 C 
HETATM   34  C   UNL     1      38.353  53.890   7.451  1.00  0.00     0.055 C 
BRANCH  33  35
HETATM   35  C   UNL     1      36.790  54.749   5.751  1.00  0.00     0.208 C 
BRANCH  35  36
HETATM   36  O   UNL     1      35.428  54.959   5.401  1.00  0.00    -0.397 OA
ATOM     37  HO  UNL     1      34.849  54.619   6.073  1.00  0.00     0.209 HD
ENDBRANCH  35  36
ENDBRANCH  33  35
BRANCH  33  38
HETATM   38  O   UNL     1      36.199  54.588   8.068  1.00  0.00    -0.381 OA
ATOM     39  HO  UNL     1      36.383  54.222   8.926  1.00  0.00     0.211 HD
ENDBRANCH  33  38
ENDBRANCH  30  33
ENDBRANCH   6  26
TORSDOF 9
ENDMDL
MODEL 10
REMARK VINA RESULT:    -7.369      2.915      4.177
REMARK INTER + INTRA:         -12.871
REMARK INTER:                 -11.694
REMARK INTRA:                  -1.176
REMARK UNBOUND:                -2.056
REMARK  9 active torsions:
REMARK  status: ('A' for Active; 'I' for Inactive)
REMARK    1  A    between atoms: C_1  and  O_8 
REMARK    2  A    between atoms: C_6  and  C_26 
REMARK    3  A    between atoms: O_8  and  C_10 
REMARK    4  A    between atoms: C_10  and  C_11 
REMARK    5  A    between atoms: C_13  and  N_19 
REMARK    6  A    between atoms: C_30  and  C_33 
REMARK    7  A    between atoms: C_33  and  C_34 
REMARK    8  A    between atoms: C_33  and  O_35 
REMARK    9  A    between atoms: C_34  and  O_38 
ROOT
HETATM    1  C   UNL     1      34.015  47.665   7.295  1.00  0.00     0.111 A 
HETATM    2  C   UNL     1      34.304  48.801   6.546  1.00  0.00     0.149 A 
HETATM    3  N   UNL     1      35.554  49.075   6.094  1.00  0.00    -0.351 N 
ATOM      4  HN  UNL     1      35.747  49.909   5.539  1.00  0.00     0.166 HD
HETATM    5  C   UNL     1      36.535  48.196   6.410  1.00  0.00     0.102 A 
HETATM    6  C   UNL     1      36.357  47.044   7.159  1.00  0.00     0.001 A 
HETATM    7  C   UNL     1      35.061  46.782   7.592  1.00  0.00     0.054 A 
HETATM    8  N   UNL     1      33.259  49.705   6.242  1.00  0.00    -0.080 NA
ENDROOT
BRANCH   1   9
HETATM    9  O   UNL     1      32.692  47.510   7.702  1.00  0.00    -0.338 OA
BRANCH   9  10
HETATM   10  C   UNL     1      32.097  46.238   7.433  1.00  0.00     0.160 C 
HETATM   11  C   UNL     1      31.772  46.208   5.953  1.00  0.00     0.045 C 
BRANCH  10  12
HETATM   12  C   UNL     1      30.841  46.101   8.240  1.00  0.00     0.004 A 
HETATM   13  C   UNL     1      29.841  47.093   8.232  1.00  0.00     0.084 A 
HETATM   14  C   UNL     1      28.673  46.899   8.982  1.00  0.00     0.037 A 
HETATM   15  C   UNL     1      28.492  45.714   9.702  1.00  0.00     0.044 A 
HETATM   16  C   UNL     1      29.488  44.740   9.712  1.00  0.00     0.117 A 
HETATM   17  C   UNL     1      30.668  44.931   8.989  1.00  0.00     0.054 A 
HETATM   18  F   UNL     1      29.311  43.615  10.420  1.00  0.00    -0.206 F 
BRANCH  13  19
HETATM   19  N   UNL     1      29.923  48.285   7.481  1.00  0.00    -0.197 N 
HETATM   20  N   UNL     1      29.032  48.518   6.495  1.00  0.00    -0.289 N 
HETATM   21  C   UNL     1      29.126  49.839   6.312  1.00  0.00     0.127 A 
ATOM     22  HN  UNL     1      28.434  47.851   6.009  1.00  0.00     0.188 HD
HETATM   23  C   UNL     1      30.064  50.363   7.208  1.00  0.00     0.127 A 
HETATM   24  N   UNL     1      30.550  49.371   7.965  1.00  0.00    -0.289 N 
ATOM     25  HN  UNL     1      31.230  49.425   8.723  1.00  0.00     0.188 HD
ENDBRANCH  13  19
ENDBRANCH  10  12
ENDBRANCH   9  10
ENDBRANCH   1   9
BRANCH   6  26
HETATM   26  C   UNL     1      37.471  46.161   7.503  1.00  0.00     0.040 A 
HETATM   27  C   UNL     1      37.604  44.784   7.521  1.00  0.00     0.024 A 
HETATM   28  N   UNL     1      38.837  44.321   7.953  1.00  0.00    -0.354 N 
HETATM   29  C   UNL     1      36.587  43.774   7.169  1.00  0.00     0.069 C 
HETATM   30  C   UNL     1      39.652  45.310   8.250  1.00  0.00     0.088 A 
ATOM     31  HN  UNL     1      39.082  43.334   8.031  1.00  0.00     0.166 HD
HETATM   32  S   UNL     1      38.963  46.863   7.988  1.00  0.00    -0.071 SA
BRANCH  30  33
HETATM   33  C   UNL     1      41.030  45.152   8.778  1.00  0.00     0.124 C 
HETATM   34  C   UNL     1      41.871  44.460   7.724  1.00  0.00     0.055 C 
BRANCH  33  35
HETATM   35  C   UNL     1      41.655  46.491   9.102  1.00  0.00     0.208 C 
BRANCH  35  36
HETATM   36  O   UNL     1      42.153  46.511  10.434  1.00  0.00    -0.397 OA
ATOM     37  HO  UNL     1      41.533  46.927  11.022  1.00  0.00     0.209 HD
ENDBRANCH  35  36
ENDBRANCH  33  35
BRANCH  33  38
HETATM   38  O   UNL     1      41.094  44.315   9.935  1.00  0.00    -0.381 OA
ATOM     39  HO  UNL     1      41.981  44.066  10.165  1.00  0.00     0.211 HD
ENDBRANCH  33  38
ENDBRANCH  30  33
ENDBRANCH   6  26
TORSDOF 9
ENDMDL
MODEL 11
REMARK VINA RESULT:    -7.330      3.625      5.692
REMARK INTER + INTRA:         -12.814
REMARK INTER:                 -11.871
REMARK INTRA:                  -0.943
REMARK UNBOUND:                -2.056
REMARK  9 active torsions:
REMARK  status: ('A' for Active; 'I' for Inactive)
REMARK    1  A    between atoms: C_1  and  O_8 
REMARK    2  A    between atoms: C_6  and  C_26 
REMARK    3  A    between atoms: O_8  and  C_10 
REMARK    4  A    between atoms: C_10  and  C_11 
REMARK    5  A    between atoms: C_13  and  N_19 
REMARK    6  A    between atoms: C_30  and  C_33 
REMARK    7  A    between atoms: C_33  and  C_34 
REMARK    8  A    between atoms: C_33  and  O_35 
REMARK    9  A    between atoms: C_34  and  O_38 
ROOT
HETATM    1  C   UNL     1      34.162  46.691   7.349  1.00  0.00     0.111 A 
HETATM    2  C   UNL     1      35.136  45.930   6.710  1.00  0.00     0.149 A 
HETATM    3  N   UNL     1      36.175  46.493   6.043  1.00  0.00    -0.351 N 
ATOM      4  HN  UNL     1      36.886  45.920   5.587  1.00  0.00     0.166 HD
HETATM    5  C   UNL     1      36.232  47.846   6.010  1.00  0.00     0.102 A 
HETATM    6  C   UNL     1      35.309  48.694   6.601  1.00  0.00     0.001 A 
HETATM    7  C   UNL     1      34.265  48.086   7.292  1.00  0.00     0.054 A 
HETATM    8  N   UNL     1      35.042  44.520   6.755  1.00  0.00    -0.080 NA
ENDROOT
BRANCH   1   9
HETATM    9  O   UNL     1      33.144  45.985   7.988  1.00  0.00    -0.338 OA
BRANCH   9  10
HETATM   10  C   UNL     1      32.009  45.654   7.183  1.00  0.00     0.160 C 
HETATM   11  C   UNL     1      31.799  46.806   6.222  1.00  0.00     0.045 C 
BRANCH  10  12
HETATM   12  C   UNL     1      30.809  45.493   8.066  1.00  0.00     0.004 A 
HETATM   13  C   UNL     1      30.702  44.435   8.990  1.00  0.00     0.084 A 
HETATM   14  C   UNL     1      29.571  44.350   9.812  1.00  0.00     0.037 A 
HETATM   15  C   UNL     1      28.576  45.330   9.738  1.00  0.00     0.044 A 
HETATM   16  C   UNL     1      28.684  46.370   8.817  1.00  0.00     0.117 A 
HETATM   17  C   UNL     1      29.794  46.453   7.973  1.00  0.00     0.054 A 
HETATM   18  F   UNL     1      27.715  47.294   8.743  1.00  0.00    -0.206 F 
BRANCH  13  19
HETATM   19  N   UNL     1      31.693  43.445   9.168  1.00  0.00    -0.197 N 
HETATM   20  N   UNL     1      31.884  42.509   8.217  1.00  0.00    -0.289 N 
HETATM   21  C   UNL     1      33.107  42.045   8.492  1.00  0.00     0.127 A 
ATOM     22  HN  UNL     1      31.251  42.224   7.470  1.00  0.00     0.188 HD
HETATM   23  C   UNL     1      33.622  42.732   9.598  1.00  0.00     0.127 A 
HETATM   24  N   UNL     1      32.725  43.637  10.008  1.00  0.00    -0.289 N 
ATOM     25  HN  UNL     1      32.806  44.309  10.771  1.00  0.00     0.188 HD
ENDBRANCH  13  19
ENDBRANCH  10  12
ENDBRANCH   9  10
ENDBRANCH   1   9
BRANCH   6  26
HETATM   26  C   UNL     1      35.406  50.148   6.486  1.00  0.00     0.040 A 
HETATM   27  C   UNL     1      34.685  51.081   5.761  1.00  0.00     0.024 A 
HETATM   28  N   UNL     1      35.121  52.389   5.895  1.00  0.00    -0.354 N 
HETATM   29  C   UNL     1      33.547  50.836   4.854  1.00  0.00     0.069 C 
HETATM   30  C   UNL     1      36.146  52.480   6.715  1.00  0.00     0.088 A 
ATOM     31  HN  UNL     1      34.699  53.185   5.416  1.00  0.00     0.166 HD
HETATM   32  S   UNL     1      36.613  50.970   7.391  1.00  0.00    -0.071 SA
BRANCH  30  33
HETATM   33  C   UNL     1      36.870  53.734   7.042  1.00  0.00     0.124 C 
HETATM   34  C   UNL     1      38.244  53.371   7.568  1.00  0.00     0.055 C 
BRANCH  33  35
HETATM   35  C   UNL     1      37.029  54.615   5.824  1.00  0.00     0.208 C 
BRANCH  35  36
HETATM   36  O   UNL     1      35.818  55.303   5.533  1.00  0.00    -0.397 OA
ATOM     37  HO  UNL     1      35.754  56.105   6.038  1.00  0.00     0.209 HD
ENDBRANCH  35  36
ENDBRANCH  33  35
BRANCH  33  38
HETATM   38  O   UNL     1      36.244  54.486   8.085  1.00  0.00    -0.381 OA
ATOM     39  HO  UNL     1      35.806  53.938   8.726  1.00  0.00     0.211 HD
ENDBRANCH  33  38
ENDBRANCH  30  33
ENDBRANCH   6  26
TORSDOF 9
ENDMDL
MODEL 12
REMARK VINA RESULT:    -7.222      3.660      5.348
REMARK INTER + INTRA:         -12.656
REMARK INTER:                 -10.642
REMARK INTRA:                  -2.014
REMARK UNBOUND:                -2.056
REMARK  9 active torsions:
REMARK  status: ('A' for Active; 'I' for Inactive)
REMARK    1  A    between atoms: C_1  and  O_8 
REMARK    2  A    between atoms: C_6  and  C_26 
REMARK    3  A    between atoms: O_8  and  C_10 
REMARK    4  A    between atoms: C_10  and  C_11 
REMARK    5  A    between atoms: C_13  and  N_19 
REMARK    6  A    between atoms: C_30  and  C_33 
REMARK    7  A    between atoms: C_33  and  C_34 
REMARK    8  A    between atoms: C_33  and  O_35 
REMARK    9  A    between atoms: C_34  and  O_38 
ROOT
HETATM    1  C   UNL     1      34.839  46.230   7.169  1.00  0.00     0.111 A 
HETATM    2  C   UNL     1      35.946  45.574   6.641  1.00  0.00     0.149 A 
HETATM    3  N   UNL     1      37.009  46.242   6.126  1.00  0.00    -0.351 N 
ATOM      4  HN  UNL     1      37.817  45.746   5.750  1.00  0.00     0.166 HD
HETATM    5  C   UNL     1      36.953  47.596   6.132  1.00  0.00     0.102 A 
HETATM    6  C   UNL     1      35.895  48.345   6.620  1.00  0.00     0.001 A 
HETATM    7  C   UNL     1      34.829  47.631   7.159  1.00  0.00     0.054 A 
HETATM    8  N   UNL     1      35.968  44.160   6.641  1.00  0.00    -0.080 NA
ENDROOT
BRANCH   1   9
HETATM    9  O   UNL     1      33.813  45.423   7.657  1.00  0.00    -0.338 OA
BRANCH   9  10
HETATM   10  C   UNL     1      33.320  45.753   8.958  1.00  0.00     0.160 C 
HETATM   11  C   UNL     1      34.086  44.902   9.950  1.00  0.00     0.045 C 
BRANCH  10  12
HETATM   12  C   UNL     1      31.857  45.432   9.025  1.00  0.00     0.004 A 
HETATM   13  C   UNL     1      30.892  46.222   8.370  1.00  0.00     0.084 A 
HETATM   14  C   UNL     1      29.541  45.858   8.442  1.00  0.00     0.037 A 
HETATM   15  C   UNL     1      29.162  44.701   9.130  1.00  0.00     0.044 A 
HETATM   16  C   UNL     1      30.121  43.928   9.782  1.00  0.00     0.117 A 
HETATM   17  C   UNL     1      31.469  44.292   9.740  1.00  0.00     0.054 A 
HETATM   18  F   UNL     1      29.744  42.830  10.453  1.00  0.00    -0.206 F 
BRANCH  13  19
HETATM   19  N   UNL     1      31.202  47.366   7.604  1.00  0.00    -0.197 N 
HETATM   20  N   UNL     1      31.315  47.265   6.264  1.00  0.00    -0.289 N 
HETATM   21  C   UNL     1      31.180  48.530   5.855  1.00  0.00     0.127 A 
ATOM     22  HN  UNL     1      31.465  46.429   5.701  1.00  0.00     0.188 HD
HETATM   23  C   UNL     1      30.975  49.355   6.967  1.00  0.00     0.127 A 
HETATM   24  N   UNL     1      30.967  48.603   8.075  1.00  0.00    -0.289 N 
ATOM     25  HN  UNL     1      30.819  48.897   9.040  1.00  0.00     0.188 HD
ENDBRANCH  13  19
ENDBRANCH  10  12
ENDBRANCH   9  10
ENDBRANCH   1   9
BRANCH   6  26
HETATM   26  C   UNL     1      35.881  49.805   6.553  1.00  0.00     0.040 A 
HETATM   27  C   UNL     1      35.109  50.703   5.837  1.00  0.00     0.024 A 
HETATM   28  N   UNL     1      35.438  52.036   6.024  1.00  0.00    -0.354 N 
HETATM   29  C   UNL     1      34.017  50.401   4.891  1.00  0.00     0.069 C 
HETATM   30  C   UNL     1      36.432  52.178   6.875  1.00  0.00     0.088 A 
ATOM     31  HN  UNL     1      34.968  52.812   5.558  1.00  0.00     0.166 HD
HETATM   32  S   UNL     1      36.998  50.688   7.517  1.00  0.00    -0.071 SA
BRANCH  30  33
HETATM   33  C   UNL     1      37.047  53.473   7.261  1.00  0.00     0.124 C 
HETATM   34  C   UNL     1      38.235  53.190   8.158  1.00  0.00     0.055 C 
BRANCH  33  35
HETATM   35  C   UNL     1      37.520  54.244   6.049  1.00  0.00     0.208 C 
BRANCH  35  36
HETATM   36  O   UNL     1      37.687  53.380   4.931  1.00  0.00    -0.397 OA
ATOM     37  HO  UNL     1      36.921  52.832   4.809  1.00  0.00     0.209 HD
ENDBRANCH  35  36
ENDBRANCH  33  35
BRANCH  33  38
HETATM   38  O   UNL     1      36.172  54.301   8.030  1.00  0.00    -0.381 OA
ATOM     39  HO  UNL     1      36.527  54.530   8.881  1.00  0.00     0.211 HD
ENDBRANCH  33  38
ENDBRANCH  30  33
ENDBRANCH   6  26
TORSDOF 9
ENDMDL
MODEL 13
REMARK VINA RESULT:    -7.213      2.994      5.186
REMARK INTER + INTRA:         -12.642
REMARK INTER:                 -10.756
REMARK INTRA:                  -1.886
REMARK UNBOUND:                -2.056
REMARK  9 active torsions:
REMARK  status: ('A' for Active; 'I' for Inactive)
REMARK    1  A    between atoms: C_1  and  O_8 
REMARK    2  A    between atoms: C_6  and  C_26 
REMARK    3  A    between atoms: O_8  and  C_10 
REMARK    4  A    between atoms: C_10  and  C_11 
REMARK    5  A    between atoms: C_13  and  N_19 
REMARK    6  A    between atoms: C_30  and  C_33 
REMARK    7  A    between atoms: C_33  and  C_34 
REMARK    8  A    between atoms: C_33  and  O_35 
REMARK    9  A    between atoms: C_34  and  O_38 
ROOT
HETATM    1  C   UNL     1      34.814  46.286   7.971  1.00  0.00     0.111 A 
HETATM    2  C   UNL     1      35.194  46.552   9.282  1.00  0.00     0.149 A 
HETATM    3  N   UNL     1      36.426  46.240   9.759  1.00  0.00    -0.351 N 
ATOM      4  HN  UNL     1      36.692  46.448  10.721  1.00  0.00     0.166 HD
HETATM    5  C   UNL     1      37.289  45.641   8.903  1.00  0.00     0.102 A 
HETATM    6  C   UNL     1      37.006  45.322   7.584  1.00  0.00     0.001 A 
HETATM    7  C   UNL     1      35.742  45.671   7.121  1.00  0.00     0.054 A 
HETATM    8  N   UNL     1      34.266  47.169  10.153  1.00  0.00    -0.080 NA
ENDROOT
BRANCH   1   9
HETATM    9  O   UNL     1      33.516  46.650   7.616  1.00  0.00    -0.338 OA
BRANCH   9  10
HETATM   10  C   UNL     1      32.723  45.628   7.007  1.00  0.00     0.160 C 
HETATM   11  C   UNL     1      32.305  46.146   5.645  1.00  0.00     0.045 C 
BRANCH  10  12
HETATM   12  C   UNL     1      31.514  45.372   7.854  1.00  0.00     0.004 A 
HETATM   13  C   UNL     1      31.498  44.371   8.845  1.00  0.00     0.084 A 
HETATM   14  C   UNL     1      30.350  44.195   9.629  1.00  0.00     0.037 A 
HETATM   15  C   UNL     1      29.245  45.033   9.450  1.00  0.00     0.044 A 
HETATM   16  C   UNL     1      29.263  46.017   8.464  1.00  0.00     0.117 A 
HETATM   17  C   UNL     1      30.392  46.187   7.658  1.00  0.00     0.054 A 
HETATM   18  F   UNL     1      28.191  46.803   8.290  1.00  0.00    -0.206 F 
BRANCH  13  19
HETATM   19  N   UNL     1      32.596  43.530   9.128  1.00  0.00    -0.197 N 
HETATM   20  N   UNL     1      33.099  42.736   8.161  1.00  0.00    -0.289 N 
HETATM   21  C   UNL     1      34.318  42.437   8.621  1.00  0.00     0.127 A 
ATOM     22  HN  UNL     1      32.658  42.437   7.292  1.00  0.00     0.188 HD
HETATM   23  C   UNL     1      34.516  43.076   9.851  1.00  0.00     0.127 A 
HETATM   24  N   UNL     1      33.424  43.788  10.155  1.00  0.00    -0.289 N 
ATOM     25  HN  UNL     1      33.260  44.382  10.968  1.00  0.00     0.188 HD
ENDBRANCH  13  19
ENDBRANCH  10  12
ENDBRANCH   9  10
ENDBRANCH   1   9
BRANCH   6  26
HETATM   26  C   UNL     1      37.971  44.632   6.728  1.00  0.00     0.040 A 
HETATM   27  C   UNL     1      38.915  45.088   5.825  1.00  0.00     0.024 A 
HETATM   28  N   UNL     1      39.623  44.094   5.169  1.00  0.00    -0.354 N 
HETATM   29  C   UNL     1      39.221  46.486   5.468  1.00  0.00     0.069 C 
HETATM   30  C   UNL     1      39.253  42.892   5.560  1.00  0.00     0.088 A 
ATOM     31  HN  UNL     1      40.343  44.272   4.468  1.00  0.00     0.166 HD
HETATM   32  S   UNL     1      38.038  42.915   6.775  1.00  0.00    -0.071 SA
BRANCH  30  33
HETATM   33  C   UNL     1      39.789  41.616   5.023  1.00  0.00     0.124 C 
HETATM   34  C   UNL     1      40.394  41.886   3.660  1.00  0.00     0.055 C 
BRANCH  33  35
HETATM   35  C   UNL     1      40.856  41.041   5.928  1.00  0.00     0.208 C 
BRANCH  35  36
HETATM   36  O   UNL     1      40.391  39.864   6.577  1.00  0.00    -0.397 OA
ATOM     37  HO  UNL     1      40.611  39.089   6.072  1.00  0.00     0.209 HD
ENDBRANCH  35  36
ENDBRANCH  33  35
BRANCH  33  38
HETATM   38  O   UNL     1      38.777  40.630   4.809  1.00  0.00    -0.381 OA
ATOM     39  HO  UNL     1      39.054  39.934   4.225  1.00  0.00     0.211 HD
ENDBRANCH  33  38
ENDBRANCH  30  33
ENDBRANCH   6  26
TORSDOF 9
ENDMDL
MODEL 14
REMARK VINA RESULT:    -7.106      3.300      5.218
REMARK INTER + INTRA:         -12.486
REMARK INTER:                 -10.521
REMARK INTRA:                  -1.965
REMARK UNBOUND:                -2.056
REMARK  9 active torsions:
REMARK  status: ('A' for Active; 'I' for Inactive)
REMARK    1  A    between atoms: C_1  and  O_8 
REMARK    2  A    between atoms: C_6  and  C_26 
REMARK    3  A    between atoms: O_8  and  C_10 
REMARK    4  A    between atoms: C_10  and  C_11 
REMARK    5  A    between atoms: C_13  and  N_19 
REMARK    6  A    between atoms: C_30  and  C_33 
REMARK    7  A    between atoms: C_33  and  C_34 
REMARK    8  A    between atoms: C_33  and  O_35 
REMARK    9  A    between atoms: C_34  and  O_38 
ROOT
HETATM    1  C   UNL     1      36.248  45.568   8.339  1.00  0.00     0.111 A 
HETATM    2  C   UNL     1      36.501  44.742   7.249  1.00  0.00     0.149 A 
HETATM    3  N   UNL     1      37.254  45.143   6.194  1.00  0.00    -0.351 N 
ATOM      4  HN  UNL     1      37.437  44.522   5.405  1.00  0.00     0.166 HD
HETATM    5  C   UNL     1      37.754  46.402   6.231  1.00  0.00     0.102 A 
HETATM    6  C   UNL     1      37.551  47.307   7.260  1.00  0.00     0.001 A 
HETATM    7  C   UNL     1      36.790  46.859   8.335  1.00  0.00     0.054 A 
HETATM    8  N   UNL     1      35.956  43.437   7.237  1.00  0.00    -0.080 NA
ENDROOT
BRANCH   1   9
HETATM    9  O   UNL     1      35.451  45.034   9.350  1.00  0.00    -0.338 OA
BRANCH   9  10
HETATM   10  C   UNL     1      34.449  45.903   9.885  1.00  0.00     0.160 C 
HETATM   11  C   UNL     1      34.455  45.710  11.388  1.00  0.00     0.045 C 
BRANCH  10  12
HETATM   12  C   UNL     1      33.114  45.520   9.322  1.00  0.00     0.004 A 
HETATM   13  C   UNL     1      32.562  46.178   8.205  1.00  0.00     0.084 A 
HETATM   14  C   UNL     1      31.324  45.759   7.701  1.00  0.00     0.037 A 
HETATM   15  C   UNL     1      30.662  44.674   8.283  1.00  0.00     0.044 A 
HETATM   16  C   UNL     1      31.209  44.032   9.392  1.00  0.00     0.117 A 
HETATM   17  C   UNL     1      32.431  44.455   9.921  1.00  0.00     0.054 A 
HETATM   18  F   UNL     1      30.557  43.004   9.953  1.00  0.00    -0.206 F 
BRANCH  13  19
HETATM   19  N   UNL     1      33.200  47.238   7.524  1.00  0.00    -0.197 N 
HETATM   20  N   UNL     1      33.754  47.020   6.314  1.00  0.00    -0.289 N 
HETATM   21  C   UNL     1      33.861  48.252   5.807  1.00  0.00     0.127 A 
ATOM     22  HN  UNL     1      34.024  46.133   5.890  1.00  0.00     0.188 HD
HETATM   23  C   UNL     1      33.352  49.176   6.727  1.00  0.00     0.127 A 
HETATM   24  N   UNL     1      32.912  48.520   7.808  1.00  0.00    -0.289 N 
ATOM     25  HN  UNL     1      32.466  48.901   8.642  1.00  0.00     0.188 HD
ENDBRANCH  13  19
ENDBRANCH  10  12
ENDBRANCH   9  10
ENDBRANCH   1   9
BRANCH   6  26
HETATM   26  C   UNL     1      38.083  48.668   7.213  1.00  0.00     0.040 A 
HETATM   27  C   UNL     1      39.367  49.169   7.084  1.00  0.00     0.024 A 
HETATM   28  N   UNL     1      39.462  50.550   7.123  1.00  0.00    -0.354 N 
HETATM   29  C   UNL     1      40.623  48.407   6.944  1.00  0.00     0.069 C 
HETATM   30  C   UNL     1      38.282  51.117   7.265  1.00  0.00     0.088 A 
ATOM     31  HN  UNL     1      40.340  51.066   7.052  1.00  0.00     0.166 HD
HETATM   32  S   UNL     1      36.988  49.988   7.326  1.00  0.00    -0.071 SA
BRANCH  30  33
HETATM   33  C   UNL     1      38.044  52.577   7.380  1.00  0.00     0.124 C 
HETATM   34  C   UNL     1      39.382  53.270   7.539  1.00  0.00     0.055 C 
BRANCH  33  35
HETATM   35  C   UNL     1      37.351  53.123   6.152  1.00  0.00     0.208 C 
BRANCH  35  36
HETATM   36  O   UNL     1      36.141  53.784   6.502  1.00  0.00    -0.397 OA
ATOM     37  HO  UNL     1      36.262  54.327   7.272  1.00  0.00     0.209 HD
ENDBRANCH  35  36
ENDBRANCH  33  35
BRANCH  33  38
HETATM   38  O   UNL     1      37.286  52.930   8.540  1.00  0.00    -0.381 OA
ATOM     39  HO  UNL     1      37.092  53.859   8.589  1.00  0.00     0.211 HD
ENDBRANCH  33  38
ENDBRANCH  30  33
ENDBRANCH   6  26
TORSDOF 9
ENDMDL
MODEL 15
REMARK VINA RESULT:    -7.049      3.747      7.212
REMARK INTER + INTRA:         -12.402
REMARK INTER:                 -10.599
REMARK INTRA:                  -1.803
REMARK UNBOUND:                -2.056
REMARK  9 active torsions:
REMARK  status: ('A' for Active; 'I' for Inactive)
REMARK    1  A    between atoms: C_1  and  O_8 
REMARK    2  A    between atoms: C_6  and  C_26 
REMARK    3  A    between atoms: O_8  and  C_10 
REMARK    4  A    between atoms: C_10  and  C_11 
REMARK    5  A    between atoms: C_13  and  N_19 
REMARK    6  A    between atoms: C_30  and  C_33 
REMARK    7  A    between atoms: C_33  and  C_34 
REMARK    8  A    between atoms: C_33  and  O_35 
REMARK    9  A    between atoms: C_34  and  O_38 
ROOT
HETATM    1  C   UNL     1      35.362  46.768   8.287  1.00  0.00     0.111 A 
HETATM    2  C   UNL     1      36.181  46.226   7.303  1.00  0.00     0.149 A 
HETATM    3  N   UNL     1      36.219  46.717   6.038  1.00  0.00    -0.351 N 
ATOM      4  HN  UNL     1      36.832  46.313   5.329  1.00  0.00     0.166 HD
HETATM    5  C   UNL     1      35.410  47.767   5.755  1.00  0.00     0.102 A 
HETATM    6  C   UNL     1      34.549  48.371   6.656  1.00  0.00     0.001 A 
HETATM    7  C   UNL     1      34.547  47.856   7.949  1.00  0.00     0.054 A 
HETATM    8  N   UNL     1      37.006  45.125   7.628  1.00  0.00    -0.080 NA
ENDROOT
BRANCH   1   9
HETATM    9  O   UNL     1      35.414  46.161   9.540  1.00  0.00    -0.338 OA
BRANCH   9  10
HETATM   10  C   UNL     1      34.158  45.761  10.096  1.00  0.00     0.160 C 
HETATM   11  C   UNL     1      34.315  45.785  11.603  1.00  0.00     0.045 C 
BRANCH  10  12
HETATM   12  C   UNL     1      33.835  44.373   9.634  1.00  0.00     0.004 A 
HETATM   13  C   UNL     1      32.692  44.094   8.859  1.00  0.00     0.084 A 
HETATM   14  C   UNL     1      32.454  42.782   8.428  1.00  0.00     0.037 A 
HETATM   15  C   UNL     1      33.366  41.768   8.737  1.00  0.00     0.044 A 
HETATM   16  C   UNL     1      34.491  42.048   9.509  1.00  0.00     0.117 A 
HETATM   17  C   UNL     1      34.727  43.347   9.967  1.00  0.00     0.054 A 
HETATM   18  F   UNL     1      35.349  41.064   9.814  1.00  0.00    -0.206 F 
BRANCH  13  19
HETATM   19  N   UNL     1      31.760  45.075   8.453  1.00  0.00    -0.197 N 
HETATM   20  N   UNL     1      31.810  45.567   7.198  1.00  0.00    -0.289 N 
HETATM   21  C   UNL     1      30.595  46.101   7.037  1.00  0.00     0.127 A 
ATOM     22  HN  UNL     1      32.583  45.539   6.535  1.00  0.00     0.188 HD
HETATM   23  C   UNL     1      29.844  45.898   8.201  1.00  0.00     0.127 A 
HETATM   24  N   UNL     1      30.585  45.224   9.089  1.00  0.00    -0.289 N 
ATOM     25  HN  UNL     1      30.323  44.902  10.020  1.00  0.00     0.188 HD
ENDBRANCH  13  19
ENDBRANCH  10  12
ENDBRANCH   9  10
ENDBRANCH   1   9
BRANCH   6  26
HETATM   26  C   UNL     1      33.668  49.472   6.271  1.00  0.00     0.040 A 
HETATM   27  C   UNL     1      33.869  50.608   5.505  1.00  0.00     0.024 A 
HETATM   28  N   UNL     1      32.770  51.446   5.404  1.00  0.00    -0.354 N 
HETATM   29  C   UNL     1      35.108  51.032   4.827  1.00  0.00     0.069 C 
HETATM   30  C   UNL     1      31.732  50.971   6.060  1.00  0.00     0.088 A 
ATOM     31  HN  UNL     1      32.765  52.324   4.884  1.00  0.00     0.166 HD
HETATM   32  S   UNL     1      32.037  49.456   6.812  1.00  0.00    -0.071 SA
BRANCH  30  33
HETATM   33  C   UNL     1      30.416  51.646   6.181  1.00  0.00     0.124 C 
HETATM   34  C   UNL     1      30.364  52.781   5.179  1.00  0.00     0.055 C 
BRANCH  33  35
HETATM   35  C   UNL     1      29.277  50.691   5.900  1.00  0.00     0.208 C 
BRANCH  35  36
HETATM   36  O   UNL     1      29.256  50.314   4.529  1.00  0.00    -0.397 OA
ATOM     37  HO  UNL     1      29.705  49.486   4.398  1.00  0.00     0.209 HD
ENDBRANCH  35  36
ENDBRANCH  33  35
BRANCH  33  38
HETATM   38  O   UNL     1      30.213  52.251   7.461  1.00  0.00    -0.381 OA
ATOM     39  HO  UNL     1      29.332  52.128   7.794  1.00  0.00     0.211 HD
ENDBRANCH  33  38
ENDBRANCH  30  33
ENDBRANCH   6  26
TORSDOF 9
ENDMDL
MODEL 16
REMARK VINA RESULT:    -7.044      2.562      3.670
REMARK INTER + INTRA:         -12.394
REMARK INTER:                 -11.481
REMARK INTRA:                  -0.913
REMARK UNBOUND:                -2.056
REMARK  9 active torsions:
REMARK  status: ('A' for Active; 'I' for Inactive)
REMARK    1  A    between atoms: C_1  and  O_8 
REMARK    2  A    between atoms: C_6  and  C_26 
REMARK    3  A    between atoms: O_8  and  C_10 
REMARK    4  A    between atoms: C_10  and  C_11 
REMARK    5  A    between atoms: C_13  and  N_19 
REMARK    6  A    between atoms: C_30  and  C_33 
REMARK    7  A    between atoms: C_33  and  C_34 
REMARK    8  A    between atoms: C_33  and  O_35 
REMARK    9  A    between atoms: C_34  and  O_38 
ROOT
HETATM    1  C   UNL     1      29.344  45.943   8.445  1.00  0.00     0.111 A 
HETATM    2  C   UNL     1      28.851  45.186   9.503  1.00  0.00     0.149 A 
HETATM    3  N   UNL     1      29.583  44.214  10.103  1.00  0.00    -0.351 N 
ATOM      4  HN  UNL     1      29.209  43.673  10.884  1.00  0.00     0.166 HD
HETATM    5  C   UNL     1      30.831  43.991   9.625  1.00  0.00     0.102 A 
HETATM    6  C   UNL     1      31.411  44.677   8.570  1.00  0.00     0.001 A 
HETATM    7  C   UNL     1      30.642  45.680   7.988  1.00  0.00     0.054 A 
HETATM    8  N   UNL     1      27.541  45.437   9.972  1.00  0.00    -0.080 NA
ENDROOT
BRANCH   1   9
HETATM    9  O   UNL     1      28.484  46.902   7.914  1.00  0.00    -0.338 OA
BRANCH   9  10
HETATM   10  C   UNL     1      29.095  48.119   7.476  1.00  0.00     0.160 C 
HETATM   11  C   UNL     1      29.979  48.602   8.608  1.00  0.00     0.045 C 
BRANCH  10  12
HETATM   12  C   UNL     1      28.027  49.130   7.188  1.00  0.00     0.004 A 
HETATM   13  C   UNL     1      28.306  50.334   6.513  1.00  0.00     0.084 A 
HETATM   14  C   UNL     1      27.263  51.230   6.243  1.00  0.00     0.037 A 
HETATM   15  C   UNL     1      25.952  50.911   6.612  1.00  0.00     0.044 A 
HETATM   16  C   UNL     1      25.684  49.722   7.286  1.00  0.00     0.117 A 
HETATM   17  C   UNL     1      26.718  48.830   7.583  1.00  0.00     0.054 A 
HETATM   18  F   UNL     1      24.426  49.434   7.650  1.00  0.00    -0.206 F 
BRANCH  13  19
HETATM   19  N   UNL     1      29.590  50.697   6.053  1.00  0.00    -0.197 N 
HETATM   20  N   UNL     1      29.941  50.443   4.775  1.00  0.00    -0.289 N 
HETATM   21  C   UNL     1      30.978  51.263   4.580  1.00  0.00     0.127 A 
ATOM     22  HN  UNL     1      29.519  49.787   4.119  1.00  0.00     0.188 HD
HETATM   23  C   UNL     1      31.211  51.999   5.747  1.00  0.00     0.127 A 
HETATM   24  N   UNL     1      30.308  51.650   6.673  1.00  0.00    -0.289 N 
ATOM     25  HN  UNL     1      30.193  52.016   7.617  1.00  0.00     0.188 HD
ENDBRANCH  13  19
ENDBRANCH  10  12
ENDBRANCH   9  10
ENDBRANCH   1   9
BRANCH   6  26
HETATM   26  C   UNL     1      32.747  44.352   8.074  1.00  0.00     0.040 A 
HETATM   27  C   UNL     1      33.358  43.156   7.741  1.00  0.00     0.024 A 
HETATM   28  N   UNL     1      34.679  43.267   7.338  1.00  0.00    -0.354 N 
HETATM   29  C   UNL     1      32.779  41.800   7.799  1.00  0.00     0.069 C 
HETATM   30  C   UNL     1      35.087  44.519   7.340  1.00  0.00     0.088 A 
ATOM     31  HN  UNL     1      35.265  42.475   7.072  1.00  0.00     0.166 HD
HETATM   32  S   UNL     1      33.864  45.632   7.808  1.00  0.00    -0.071 SA
BRANCH  30  33
HETATM   33  C   UNL     1      36.458  44.972   6.998  1.00  0.00     0.124 C 
HETATM   34  C   UNL     1      37.115  45.504   8.255  1.00  0.00     0.055 C 
BRANCH  33  35
HETATM   35  C   UNL     1      37.295  43.837   6.450  1.00  0.00     0.208 C 
BRANCH  35  36
HETATM   36  O   UNL     1      37.463  42.814   7.424  1.00  0.00    -0.397 OA
ATOM     37  HO  UNL     1      38.381  42.593   7.528  1.00  0.00     0.209 HD
ENDBRANCH  35  36
ENDBRANCH  33  35
BRANCH  33  38
HETATM   38  O   UNL     1      36.473  46.055   6.066  1.00  0.00    -0.381 OA
ATOM     39  HO  UNL     1      37.290  46.121   5.585  1.00  0.00     0.211 HD
ENDBRANCH  33  38
ENDBRANCH  30  33
ENDBRANCH   6  26
TORSDOF 9
ENDMDL
MODEL 17
REMARK VINA RESULT:    -6.973      4.384      7.999
REMARK INTER + INTRA:         -12.289
REMARK INTER:                 -10.606
REMARK INTRA:                  -1.683
REMARK UNBOUND:                -2.056
REMARK  9 active torsions:
REMARK  status: ('A' for Active; 'I' for Inactive)
REMARK    1  A    between atoms: C_1  and  O_8 
REMARK    2  A    between atoms: C_6  and  C_26 
REMARK    3  A    between atoms: O_8  and  C_10 
REMARK    4  A    between atoms: C_10  and  C_11 
REMARK    5  A    between atoms: C_13  and  N_19 
REMARK    6  A    between atoms: C_30  and  C_33 
REMARK    7  A    between atoms: C_33  and  C_34 
REMARK    8  A    between atoms: C_33  and  O_35 
REMARK    9  A    between atoms: C_34  and  O_38 
ROOT
HETATM    1  C   UNL     1      28.876  47.355   8.395  1.00  0.00     0.111 A 
HETATM    2  C   UNL     1      27.595  46.931   8.734  1.00  0.00     0.149 A 
HETATM    3  N   UNL     1      26.482  47.611   8.359  1.00  0.00    -0.351 N 
ATOM      4  HN  UNL     1      25.549  47.282   8.609  1.00  0.00     0.166 HD
HETATM    5  C   UNL     1      26.660  48.744   7.638  1.00  0.00     0.102 A 
HETATM    6  C   UNL     1      27.889  49.260   7.260  1.00  0.00     0.001 A 
HETATM    7  C   UNL     1      29.010  48.529   7.644  1.00  0.00     0.054 A 
HETATM    8  N   UNL     1      27.444  45.749   9.496  1.00  0.00    -0.080 NA
ENDROOT
BRANCH   1   9
HETATM    9  O   UNL     1      29.931  46.568   8.853  1.00  0.00    -0.338 OA
BRANCH   9  10
HETATM   10  C   UNL     1      30.874  46.147   7.864  1.00  0.00     0.160 C 
HETATM   11  C   UNL     1      30.574  44.693   7.561  1.00  0.00     0.045 C 
BRANCH  10  12
HETATM   12  C   UNL     1      32.260  46.283   8.417  1.00  0.00     0.004 A 
HETATM   13  C   UNL     1      33.170  47.235   7.916  1.00  0.00     0.084 A 
HETATM   14  C   UNL     1      34.444  47.339   8.490  1.00  0.00     0.037 A 
HETATM   15  C   UNL     1      34.792  46.528   9.574  1.00  0.00     0.044 A 
HETATM   16  C   UNL     1      33.891  45.583  10.061  1.00  0.00     0.117 A 
HETATM   17  C   UNL     1      32.626  45.451   9.482  1.00  0.00     0.054 A 
HETATM   18  F   UNL     1      34.241  44.799  11.090  1.00  0.00    -0.206 F 
BRANCH  13  19
HETATM   19  N   UNL     1      32.870  48.132   6.867  1.00  0.00    -0.197 N 
HETATM   20  N   UNL     1      32.907  49.461   7.092  1.00  0.00    -0.289 N 
HETATM   21  C   UNL     1      33.003  49.971   5.860  1.00  0.00     0.127 A 
ATOM     22  HN  UNL     1      32.870  49.956   7.983  1.00  0.00     0.188 HD
HETATM   23  C   UNL     1      33.036  48.927   4.930  1.00  0.00     0.127 A 
HETATM   24  N   UNL     1      32.975  47.758   5.580  1.00  0.00    -0.289 N 
ATOM     25  HN  UNL     1      33.001  46.815   5.194  1.00  0.00     0.188 HD
ENDBRANCH  13  19
ENDBRANCH  10  12
ENDBRANCH   9  10
ENDBRANCH   1   9
BRANCH   6  26
HETATM   26  C   UNL     1      28.011  50.515   6.521  1.00  0.00     0.040 A 
HETATM   27  C   UNL     1      27.118  51.238   5.749  1.00  0.00     0.024 A 
HETATM   28  N   UNL     1      27.640  52.384   5.171  1.00  0.00    -0.354 N 
HETATM   29  C   UNL     1      25.710  50.911   5.453  1.00  0.00     0.069 C 
HETATM   30  C   UNL     1      28.903  52.562   5.495  1.00  0.00     0.088 A 
ATOM     31  HN  UNL     1      27.110  53.013   4.568  1.00  0.00     0.166 HD
HETATM   32  S   UNL     1      29.513  51.350   6.550  1.00  0.00    -0.071 SA
BRANCH  30  33
HETATM   33  C   UNL     1      29.762  53.671   5.011  1.00  0.00     0.124 C 
HETATM   34  C   UNL     1      31.177  53.430   5.496  1.00  0.00     0.055 C 
BRANCH  33  35
HETATM   35  C   UNL     1      29.768  53.747   3.500  1.00  0.00     0.208 C 
BRANCH  35  36
HETATM   36  O   UNL     1      29.770  52.446   2.926  1.00  0.00    -0.397 OA
ATOM     37  HO  UNL     1      30.071  52.473   2.025  1.00  0.00     0.209 HD
ENDBRANCH  35  36
ENDBRANCH  33  35
BRANCH  33  38
HETATM   38  O   UNL     1      29.383  54.944   5.541  1.00  0.00    -0.381 OA
ATOM     39  HO  UNL     1      28.777  54.877   6.270  1.00  0.00     0.211 HD
ENDBRANCH  33  38
ENDBRANCH  30  33
ENDBRANCH   6  26
TORSDOF 9
ENDMDL
MODEL 18
REMARK VINA RESULT:    -6.966      2.977      4.054
REMARK INTER + INTRA:         -12.280
REMARK INTER:                 -10.542
REMARK INTRA:                  -1.737
REMARK UNBOUND:                -2.056
REMARK  9 active torsions:
REMARK  status: ('A' for Active; 'I' for Inactive)
REMARK    1  A    between atoms: C_1  and  O_8 
REMARK    2  A    between atoms: C_6  and  C_26 
REMARK    3  A    between atoms: O_8  and  C_10 
REMARK    4  A    between atoms: C_10  and  C_11 
REMARK    5  A    between atoms: C_13  and  N_19 
REMARK    6  A    between atoms: C_30  and  C_33 
REMARK    7  A    between atoms: C_33  and  C_34 
REMARK    8  A    between atoms: C_33  and  O_35 
REMARK    9  A    between atoms: C_34  and  O_38 
ROOT
HETATM    1  C   UNL     1      33.991  45.480   7.432  1.00  0.00     0.111 A 
HETATM    2  C   UNL     1      34.799  44.400   7.092  1.00  0.00     0.149 A 
HETATM    3  N   UNL     1      36.123  44.539   6.824  1.00  0.00    -0.351 N 
ATOM      4  HN  UNL     1      36.704  43.736   6.584  1.00  0.00     0.166 HD
HETATM    5  C   UNL     1      36.641  45.790   6.888  1.00  0.00     0.102 A 
HETATM    6  C   UNL     1      35.922  46.932   7.203  1.00  0.00     0.001 A 
HETATM    7  C   UNL     1      34.573  46.753   7.491  1.00  0.00     0.054 A 
HETATM    8  N   UNL     1      34.225  43.110   7.024  1.00  0.00    -0.080 NA
ENDROOT
BRANCH   1   9
HETATM    9  O   UNL     1      32.648  45.197   7.673  1.00  0.00    -0.338 OA
BRANCH   9  10
HETATM   10  C   UNL     1      32.171  45.494   8.989  1.00  0.00     0.160 C 
HETATM   11  C   UNL     1      32.338  44.233   9.813  1.00  0.00     0.045 C 
BRANCH  10  12
HETATM   12  C   UNL     1      30.723  45.872   8.914  1.00  0.00     0.004 A 
HETATM   13  C   UNL     1      30.283  46.981   8.165  1.00  0.00     0.084 A 
HETATM   14  C   UNL     1      28.913  47.272   8.106  1.00  0.00     0.037 A 
HETATM   15  C   UNL     1      27.993  46.445   8.756  1.00  0.00     0.044 A 
HETATM   16  C   UNL     1      28.435  45.354   9.501  1.00  0.00     0.117 A 
HETATM   17  C   UNL     1      29.799  45.066   9.590  1.00  0.00     0.054 A 
HETATM   18  F   UNL     1      27.544  44.577  10.135  1.00  0.00    -0.206 F 
BRANCH  13  19
HETATM   19  N   UNL     1      31.144  47.825   7.430  1.00  0.00    -0.197 N 
HETATM   20  N   UNL     1      31.312  47.621   6.107  1.00  0.00    -0.289 N 
HETATM   21  C   UNL     1      31.804  48.790   5.684  1.00  0.00     0.127 A 
ATOM     22  HN  UNL     1      31.113  46.782   5.563  1.00  0.00     0.188 HD
HETATM   23  C   UNL     1      31.902  49.669   6.769  1.00  0.00     0.127 A 
HETATM   24  N   UNL     1      31.459  49.054   7.872  1.00  0.00    -0.289 N 
ATOM     25  HN  UNL     1      31.379  49.428   8.818  1.00  0.00     0.188 HD
ENDBRANCH  13  19
ENDBRANCH  10  12
ENDBRANCH   9  10
ENDBRANCH   1   9
BRANCH   6  26
HETATM   26  C   UNL     1      36.536  48.259   7.209  1.00  0.00     0.040 A 
HETATM   27  C   UNL     1      37.745  48.729   7.690  1.00  0.00     0.024 A 
HETATM   28  N   UNL     1      37.946  50.091   7.535  1.00  0.00    -0.354 N 
HETATM   29  C   UNL     1      38.809  47.961   8.366  1.00  0.00     0.069 C 
HETATM   30  C   UNL     1      36.927  50.669   6.935  1.00  0.00     0.088 A 
ATOM     31  HN  UNL     1      38.781  50.586   7.848  1.00  0.00     0.166 HD
HETATM   32  S   UNL     1      35.679  49.569   6.500  1.00  0.00    -0.071 SA
BRANCH  30  33
HETATM   33  C   UNL     1      36.812  52.122   6.654  1.00  0.00     0.124 C 
HETATM   34  C   UNL     1      37.382  52.885   7.833  1.00  0.00     0.055 C 
BRANCH  33  35
HETATM   35  C   UNL     1      37.575  52.506   5.406  1.00  0.00     0.208 C 
BRANCH  35  36
HETATM   36  O   UNL     1      36.731  52.465   4.262  1.00  0.00    -0.397 OA
ATOM     37  HO  UNL     1      36.938  53.173   3.662  1.00  0.00     0.209 HD
ENDBRANCH  35  36
ENDBRANCH  33  35
BRANCH  33  38
HETATM   38  O   UNL     1      35.457  52.562   6.528  1.00  0.00    -0.381 OA
ATOM     39  HO  UNL     1      34.854  52.070   7.073  1.00  0.00     0.211 HD
ENDBRANCH  33  38
ENDBRANCH  30  33
ENDBRANCH   6  26
TORSDOF 9
ENDMDL
MODEL 19
REMARK VINA RESULT:    -6.940      3.983      6.486
REMARK INTER + INTRA:         -12.242
REMARK INTER:                 -10.240
REMARK INTRA:                  -2.002
REMARK UNBOUND:                -2.056
REMARK  9 active torsions:
REMARK  status: ('A' for Active; 'I' for Inactive)
REMARK    1  A    between atoms: C_1  and  O_8 
REMARK    2  A    between atoms: C_6  and  C_26 
REMARK    3  A    between atoms: O_8  and  C_10 
REMARK    4  A    between atoms: C_10  and  C_11 
REMARK    5  A    between atoms: C_13  and  N_19 
REMARK    6  A    between atoms: C_30  and  C_33 
REMARK    7  A    between atoms: C_33  and  C_34 
REMARK    8  A    between atoms: C_33  and  O_35 
REMARK    9  A    between atoms: C_34  and  O_38 
ROOT
HETATM    1  C   UNL     1      36.078  46.908   7.855  1.00  0.00     0.111 A 
HETATM    2  C   UNL     1      37.023  46.312   7.026  1.00  0.00     0.149 A 
HETATM    3  N   UNL     1      37.575  46.962   5.970  1.00  0.00    -0.351 N 
ATOM      4  HN  UNL     1      38.274  46.514   5.376  1.00  0.00     0.166 HD
HETATM    5  C   UNL     1      37.162  48.231   5.737  1.00  0.00     0.102 A 
HETATM    6  C   UNL     1      36.219  48.910   6.491  1.00  0.00     0.001 A 
HETATM    7  C   UNL     1      35.686  48.223   7.578  1.00  0.00     0.054 A 
HETATM    8  N   UNL     1      37.426  44.983   7.290  1.00  0.00    -0.080 NA
ENDROOT
BRANCH   1   9
HETATM    9  O   UNL     1      35.587  46.124   8.897  1.00  0.00    -0.338 OA
BRANCH   9  10
HETATM   10  C   UNL     1      34.374  46.578   9.504  1.00  0.00     0.160 C 
HETATM   11  C   UNL     1      34.659  46.752  10.982  1.00  0.00     0.045 C 
BRANCH  10  12
HETATM   12  C   UNL     1      33.306  45.545   9.303  1.00  0.00     0.004 A 
HETATM   13  C   UNL     1      32.594  45.438   8.093  1.00  0.00     0.084 A 
HETATM   14  C   UNL     1      31.627  44.434   7.949  1.00  0.00     0.037 A 
HETATM   15  C   UNL     1      31.400  43.526   8.988  1.00  0.00     0.044 A 
HETATM   16  C   UNL     1      32.102  43.642  10.185  1.00  0.00     0.117 A 
HETATM   17  C   UNL     1      33.052  44.653  10.352  1.00  0.00     0.054 A 
HETATM   18  F   UNL     1      31.864  42.776  11.181  1.00  0.00    -0.206 F 
BRANCH  13  19
HETATM   19  N   UNL     1      32.811  46.275   6.977  1.00  0.00    -0.197 N 
HETATM   20  N   UNL     1      33.461  45.796   5.896  1.00  0.00    -0.289 N 
HETATM   21  C   UNL     1      33.116  46.657   4.933  1.00  0.00     0.127 A 
ATOM     22  HN  UNL     1      34.066  44.979   5.830  1.00  0.00     0.188 HD
HETATM   23  C   UNL     1      32.254  47.622   5.464  1.00  0.00     0.127 A 
HETATM   24  N   UNL     1      32.046  47.359   6.760  1.00  0.00    -0.289 N 
ATOM     25  HN  UNL     1      31.453  47.859   7.422  1.00  0.00     0.188 HD
ENDBRANCH  13  19
ENDBRANCH  10  12
ENDBRANCH   9  10
ENDBRANCH   1   9
BRANCH   6  26
HETATM   26  C   UNL     1      35.785  50.265   6.155  1.00  0.00     0.040 A 
HETATM   27  C   UNL     1      36.109  51.508   6.670  1.00  0.00     0.024 A 
HETATM   28  N   UNL     1      35.438  52.573   6.092  1.00  0.00    -0.354 N 
HETATM   29  C   UNL     1      37.047  51.813   7.767  1.00  0.00     0.069 C 
HETATM   30  C   UNL     1      34.621  52.176   5.140  1.00  0.00     0.088 A 
ATOM     31  HN  UNL     1      35.561  53.547   6.372  1.00  0.00     0.166 HD
HETATM   32  S   UNL     1      34.653  50.478   4.879  1.00  0.00    -0.071 SA
BRANCH  30  33
HETATM   33  C   UNL     1      33.729  53.065   4.353  1.00  0.00     0.124 C 
HETATM   34  C   UNL     1      33.978  52.812   2.880  1.00  0.00     0.055 C 
BRANCH  33  35
HETATM   35  C   UNL     1      32.272  52.796   4.657  1.00  0.00     0.208 C 
BRANCH  35  36
HETATM   36  O   UNL     1      32.027  52.849   6.058  1.00  0.00    -0.397 OA
ATOM     37  HO  UNL     1      31.219  53.313   6.243  1.00  0.00     0.209 HD
ENDBRANCH  35  36
ENDBRANCH  33  35
BRANCH  33  38
HETATM   38  O   UNL     1      34.001  54.453   4.558  1.00  0.00    -0.381 OA
ATOM     39  HO  UNL     1      33.531  55.017   3.955  1.00  0.00     0.211 HD
ENDBRANCH  33  38
ENDBRANCH  30  33
ENDBRANCH   6  26
TORSDOF 9
ENDMDL
MODEL 20
REMARK VINA RESULT:    -6.931      4.840      8.672
REMARK INTER + INTRA:         -12.229
REMARK INTER:                 -10.651
REMARK INTRA:                  -1.578
REMARK UNBOUND:                -2.056
REMARK  9 active torsions:
REMARK  status: ('A' for Active; 'I' for Inactive)
REMARK    1  A    between atoms: C_1  and  O_8 
REMARK    2  A    between atoms: C_6  and  C_26 
REMARK    3  A    between atoms: O_8  and  C_10 
REMARK    4  A    between atoms: C_10  and  C_11 
REMARK    5  A    between atoms: C_13  and  N_19 
REMARK    6  A    between atoms: C_30  and  C_33 
REMARK    7  A    between atoms: C_33  and  C_34 
REMARK    8  A    between atoms: C_33  and  O_35 
REMARK    9  A    between atoms: C_34  and  O_38 
ROOT
HETATM    1  C   UNL     1      28.619  47.545   8.396  1.00  0.00     0.111 A 
HETATM    2  C   UNL     1      27.347  47.068   8.696  1.00  0.00     0.149 A 
HETATM    3  N   UNL     1      26.218  47.721   8.319  1.00  0.00    -0.351 N 
ATOM      4  HN  UNL     1      25.293  47.353   8.540  1.00  0.00     0.166 HD
HETATM    5  C   UNL     1      26.371  48.881   7.637  1.00  0.00     0.102 A 
HETATM    6  C   UNL     1      27.589  49.450   7.300  1.00  0.00     0.001 A 
HETATM    7  C   UNL     1      28.726  48.747   7.684  1.00  0.00     0.054 A 
HETATM    8  N   UNL     1      27.223  45.858   9.418  1.00  0.00    -0.080 NA
ENDROOT
BRANCH   1   9
HETATM    9  O   UNL     1      29.691  46.781   8.850  1.00  0.00    -0.338 OA
BRANCH   9  10
HETATM   10  C   UNL     1      30.563  46.261   7.842  1.00  0.00     0.160 C 
HETATM   11  C   UNL     1      30.158  44.818   7.612  1.00  0.00     0.045 C 
BRANCH  10  12
HETATM   12  C   UNL     1      31.977  46.327   8.332  1.00  0.00     0.004 A 
HETATM   13  C   UNL     1      32.906  47.242   7.799  1.00  0.00     0.084 A 
HETATM   14  C   UNL     1      34.208  47.282   8.316  1.00  0.00     0.037 A 
HETATM   15  C   UNL     1      34.567  46.444   9.375  1.00  0.00     0.044 A 
HETATM   16  C   UNL     1      33.646  45.535   9.894  1.00  0.00     0.117 A 
HETATM   17  C   UNL     1      32.352  45.467   9.372  1.00  0.00     0.054 A 
HETATM   18  F   UNL     1      34.007  44.724  10.898  1.00  0.00    -0.206 F 
BRANCH  13  19
HETATM   19  N   UNL     1      32.601  48.164   6.774  1.00  0.00    -0.197 N 
HETATM   20  N   UNL     1      32.577  49.485   7.046  1.00  0.00    -0.289 N 
HETATM   21  C   UNL     1      32.688  50.042   5.836  1.00  0.00     0.127 A 
ATOM     22  HN  UNL     1      32.495  49.945   7.952  1.00  0.00     0.188 HD
HETATM   23  C   UNL     1      32.791  49.034   4.871  1.00  0.00     0.127 A 
HETATM   24  N   UNL     1      32.758  47.841   5.478  1.00  0.00    -0.289 N 
ATOM     25  HN  UNL     1      32.834  46.914   5.061  1.00  0.00     0.188 HD
ENDBRANCH  13  19
ENDBRANCH  10  12
ENDBRANCH   9  10
ENDBRANCH   1   9
BRANCH   6  26
HETATM   26  C   UNL     1      27.681  50.731   6.601  1.00  0.00     0.040 A 
HETATM   27  C   UNL     1      28.347  51.127   5.455  1.00  0.00     0.024 A 
HETATM   28  N   UNL     1      28.212  52.469   5.135  1.00  0.00    -0.354 N 
HETATM   29  C   UNL     1      29.193  50.302   4.572  1.00  0.00     0.069 C 
HETATM   30  C   UNL     1      27.449  53.102   6.000  1.00  0.00     0.088 A 
ATOM     31  HN  UNL     1      28.652  52.911   4.327  1.00  0.00     0.166 HD
HETATM   32  S   UNL     1      26.829  52.082   7.236  1.00  0.00    -0.071 SA
BRANCH  30  33
HETATM   33  C   UNL     1      27.139  54.553   5.964  1.00  0.00     0.124 C 
HETATM   34  C   UNL     1      26.296  54.833   4.736  1.00  0.00     0.055 C 
BRANCH  33  35
HETATM   35  C   UNL     1      26.372  54.986   7.194  1.00  0.00     0.208 C 
BRANCH  35  36
HETATM   36  O   UNL     1      27.084  55.988   7.910  1.00  0.00    -0.397 OA
ATOM     37  HO  UNL     1      26.592  56.800   7.937  1.00  0.00     0.209 HD
ENDBRANCH  35  36
ENDBRANCH  33  35
BRANCH  33  38
HETATM   38  O   UNL     1      28.303  55.371   5.827  1.00  0.00    -0.381 OA
ATOM     39  HO  UNL     1      28.182  56.093   5.221  1.00  0.00     0.211 HD
ENDBRANCH  33  38
ENDBRANCH  30  33
ENDBRANCH   6  26
TORSDOF 9
ENDMDL
