REMARK  6 active torsions:
REMARK  status: ('A' for Active; 'I' for Inactive)
REMARK    1  A    between atoms: C_1  and  C_5 
REMARK    2  A    between atoms: C_1  and  O_6 
REMARK    3  A    between atoms: C_2  and  C_5 
REMARK    4  A    between atoms: C_4  and  C_8 
REMARK    5  A    between atoms: C_4  and  C_9 
REMARK    6  A    between atoms: C_5  and  C_8 
ROOT
HETATM    1  C   UNL     1      32.057  17.264  15.256  1.00  0.00     0.009 C 
ENDROOT
BRANCH   1   2
HETATM    2  C   UNL     1      31.803  18.543  16.057  1.00  0.00     0.168 C 
BRANCH   2   3
HETATM    3  O   UNL     1      33.012  19.258  16.363  1.00  0.00    -0.400 OA
ATOM      4  HO  UNL     1      32.854  20.052  16.860  1.00  0.00     0.209 HD
ENDBRANCH   2   3
ENDBRANCH   1   2
BRANCH   1   5
HETATM    5  C   UNL     1      32.403  17.639  13.817  1.00  0.00     0.002 C 
HETATM    6  C   UNL     1      31.181  18.274  13.178  1.00  0.00     0.005 C 
ENDBRANCH   1   5
BRANCH   1   7
HETATM    7  C   UNL     1      33.172  16.414  15.880  1.00  0.00     0.007 C 
BRANCH   7   8
HETATM    8  C   UNL     1      32.596  15.551  17.004  1.00  0.00     0.000 C 
BRANCH   8   9
HETATM    9  C   UNL     1      33.719  14.785  17.693  1.00  0.00    -0.005 C 
HETATM   10  C   UNL     1      33.180  13.929  18.835  1.00  0.00     0.005 C 
ENDBRANCH   8   9
ENDBRANCH   7   8
ENDBRANCH   1   7
TORSDOF 6
