REMARK  5 active torsions:
REMARK  status: ('A' for Active; 'I' for Inactive)
REMARK    1  A    between atoms: C_6  and  O_25 
REMARK    2  A    between atoms: C_7  and  C_12 
REMARK    3  A    between atoms: C_7  and  N_14 
REMARK    4  A    between atoms: C_8  and  O_29 
REMARK    5  A    between atoms: C_13  and  O_27 
ROOT
HETATM    1  C   UNL     1     -17.302 -23.576 146.169  1.00  0.00     0.020 A 
HETATM    2  C   UNL     1     -18.157 -22.689 145.530  1.00  0.00     0.037 A 
HETATM    3  C   UNL     1     -18.207 -21.272 147.483  1.00  0.00     0.074 A 
HETATM    4  C   UNL     1     -13.996 -26.941 148.759  1.00  0.00     0.041 A 
HETATM    5  C   UNL     1     -13.277 -27.296 149.892  1.00  0.00     0.040 A 
HETATM    6  C   UNL     1     -16.119 -22.638 150.222  1.00  0.00     0.198 A 
HETATM    7  C   UNL     1     -18.596 -21.544 146.186  1.00  0.00     0.068 A 
HETATM    8  C   UNL     1     -15.602 -23.876 149.601  1.00  0.00     0.071 A 
HETATM    9  C   UNL     1     -14.732 -25.762 148.783  1.00  0.00     0.088 A 
HETATM   10  C   UNL     1     -15.993 -24.182 148.220  1.00  0.00     0.105 A 
HETATM   11  C   UNL     1     -14.022 -25.301 151.073  1.00  0.00     0.021 A 
HETATM   12  C   UNL     1     -13.299 -26.491 151.036  1.00  0.00     0.077 A 
HETATM   13  C   UNL     1     -17.358 -22.152 148.124  1.00  0.00     0.094 A 
HETATM   14  C   UNL     1     -14.765 -24.959 149.925  1.00  0.00     0.029 A 
HETATM   15  C   UNL     1     -16.909 -23.291 147.474  1.00  0.00     0.033 A 
HETATM   16  O   UNL     1     -15.475 -25.342 147.715  1.00  0.00    -0.308 OA
HETATM   17  O   UNL     1     -16.981 -21.780 149.481  1.00  0.00    -0.286 OA
ENDROOT
BRANCH  11  18
HETATM   18  C   UNL     1     -14.042 -24.533 152.257  1.00  0.00     0.074 C 
BRANCH  18  19
HETATM   19  N   UNL     1     -13.066 -23.422 152.384  1.00  0.00    -0.292 NA
HETATM   20  C   UNL     1     -13.387 -22.650 153.595  1.00  0.00     0.095 C 
HETATM   21  C   UNL     1     -12.453 -21.469 153.838  1.00  0.00     0.015 C 
HETATM   22  C   UNL     1     -10.985 -21.898 153.780  1.00  0.00     0.002 C 
HETATM   23  C   UNL     1     -10.733 -22.737 152.536  1.00  0.00     0.015 C 
HETATM   24  C   UNL     1     -11.699 -23.922 152.527  1.00  0.00     0.095 C 
ENDBRANCH  18  19
ENDBRANCH  11  18
BRANCH  12  25
HETATM   25  O   UNL     1     -12.597 -26.881 152.102  1.00  0.00    -0.360 OA
ATOM     26  HO  UNL     1     -12.612 -26.334 152.879  1.00  0.00     0.217 HD
ENDBRANCH  12  25
BRANCH   6  27
HETATM   27  O   UNL     1     -15.842 -22.252 151.449  1.00  0.00    -0.340 OA
ATOM     28  HO  UNL     1     -15.267 -22.824 151.943  1.00  0.00     0.220 HD
ENDBRANCH   6  27
BRANCH   7  29
HETATM   29  O   UNL     1     -19.421 -20.688 145.593  1.00  0.00    -0.361 OA
ATOM     30  HO  UNL     1     -19.721 -19.906 146.041  1.00  0.00     0.217 HD
ENDBRANCH   7  29
TORSDOF 5
