MODEL 1
REMARK VINA RESULT:    -7.669      0.000      0.000
REMARK INTER + INTRA:         -10.755
REMARK INTER:                 -10.135
REMARK INTRA:                  -0.620
REMARK UNBOUND:                -0.620
REMARK  7 active torsions:
REMARK  status: ('A' for Active; 'I' for Inactive)
REMARK    1  A    between atoms: P_2  and  O_5 
REMARK    2  A    between atoms: O_5  and  C_6 
REMARK    3  A    between atoms: C_6  and  C_7 
REMARK    4  A    between atoms: C_9  and  O_10 
REMARK    5  A    between atoms: C_12  and  O_13 
REMARK    6  A    between atoms: C_15  and  N_16 
REMARK    7  A    between atoms: C_20  and  N_24 
ROOT
HETATM    1  C   UNL     1      16.968  72.793  32.975  1.00  0.00     0.180 C 
HETATM    2  O   UNL     1      15.817  73.591  32.724  1.00  0.00    -0.353 OA
HETATM    3  C   UNL     1      17.300  73.086  34.413  1.00  0.00     0.182 C 
HETATM    4  C   UNL     1      16.924  74.613  34.510  1.00  0.00     0.198 C 
HETATM    5  C   UNL     1      15.685  74.678  33.535  1.00  0.00     0.263 C 
ENDROOT
BRANCH   5   6
HETATM    6  N   UNL     1      14.373  74.589  34.290  1.00  0.00    -0.280 N 
HETATM    7  C   UNL     1      13.666  73.408  34.412  1.00  0.00     0.102 A 
HETATM    8  C   UNL     1      12.455  73.312  35.073  1.00  0.00     0.065 A 
HETATM    9  C   UNL     1      11.893  74.478  35.717  1.00  0.00     0.103 A 
HETATM   10  N   UNL     1      12.625  75.667  35.624  1.00  0.00    -0.295 N 
HETATM   11  C   UNL     1      13.853  75.826  34.925  1.00  0.00     0.330 A 
ATOM     12  HN  UNL     1      12.246  76.487  36.096  1.00  0.00     0.172 HD
HETATM   13  O   UNL     1      14.491  76.864  34.839  1.00  0.00    -0.246 OA
BRANCH   9  14
HETATM   14  N   UNL     1      10.702  74.456  36.386  1.00  0.00    -0.385 N 
ATOM     15  HN2 UNL     1      10.001  73.751  36.160  1.00  0.00     0.157 HD
ATOM     16  HN1 UNL     1      10.469  75.120  37.125  1.00  0.00     0.157 HD
ENDBRANCH   9  14
ENDBRANCH   5   6
BRANCH   4  17
HETATM   17  O   UNL     1      17.995  75.299  33.977  1.00  0.00    -0.388 OA
ATOM     18  HO  UNL     1      18.038  76.178  34.334  1.00  0.00     0.210 HD
ENDBRANCH   4  17
BRANCH   3  19
HETATM   19  O   UNL     1      18.628  72.947  34.819  1.00  0.00    -0.390 OA
ATOM     20  HO  UNL     1      19.182  72.349  34.331  1.00  0.00     0.210 HD
ENDBRANCH   3  19
BRANCH   1  21
HETATM   21  C   UNL     1      16.616  71.194  32.832  1.00  0.00     0.217 C 
BRANCH  21  22
HETATM   22  O   UNL     1      15.305  71.097  32.493  1.00  0.00    -0.280 OA
BRANCH  22  23
HETATM   23  P   UNL     1      14.364  69.591  32.702  1.00  0.00     0.422 P 
HETATM   24  O   UNL     1      13.254  69.971  33.681  1.00  0.00    -0.617 OA
HETATM   25  O   UNL     1      13.897  69.331  31.273  1.00  0.00    -0.617 OA
HETATM   26  O   UNL     1      15.457  68.649  33.187  1.00  0.00    -0.617 OA
ENDBRANCH  22  23
ENDBRANCH  21  22
ENDBRANCH   1  21
TORSDOF 7
ENDMDL
MODEL 2
REMARK VINA RESULT:    -7.251      4.241      5.341
REMARK INTER + INTRA:         -10.202
REMARK INTER:                  -9.722
REMARK INTRA:                  -0.480
REMARK UNBOUND:                -0.620
REMARK  7 active torsions:
REMARK  status: ('A' for Active; 'I' for Inactive)
REMARK    1  A    between atoms: P_2  and  O_5 
REMARK    2  A    between atoms: O_5  and  C_6 
REMARK    3  A    between atoms: C_6  and  C_7 
REMARK    4  A    between atoms: C_9  and  O_10 
REMARK    5  A    between atoms: C_12  and  O_13 
REMARK    6  A    between atoms: C_15  and  N_16 
REMARK    7  A    between atoms: C_20  and  N_24 
ROOT
HETATM    1  C   UNL     1      19.222  73.229  34.430  1.00  0.00     0.180 C 
HETATM    2  O   UNL     1      19.966  74.376  34.034  1.00  0.00    -0.353 OA
HETATM    3  C   UNL     1      18.624  73.628  35.751  1.00  0.00     0.182 C 
HETATM    4  C   UNL     1      19.781  74.507  36.359  1.00  0.00     0.198 C 
HETATM    5  C   UNL     1      20.357  75.187  35.057  1.00  0.00     0.263 C 
ENDROOT
BRANCH   5   6
HETATM    6  N   UNL     1      19.785  76.575  34.849  1.00  0.00    -0.280 N 
HETATM    7  C   UNL     1      18.851  77.128  35.704  1.00  0.00     0.102 A 
HETATM    8  C   UNL     1      18.296  78.381  35.517  1.00  0.00     0.065 A 
HETATM    9  C   UNL     1      18.725  79.197  34.404  1.00  0.00     0.103 A 
HETATM   10  N   UNL     1      19.696  78.653  33.557  1.00  0.00    -0.295 N 
HETATM   11  C   UNL     1      20.269  77.357  33.684  1.00  0.00     0.330 A 
ATOM     12  HN  UNL     1      20.021  79.234  32.783  1.00  0.00     0.172 HD
HETATM   13  O   UNL     1      21.113  76.879  32.943  1.00  0.00    -0.246 OA
BRANCH   9  14
HETATM   14  N   UNL     1      18.221  80.443  34.157  1.00  0.00    -0.385 N 
ATOM     15  HN2 UNL     1      17.227  80.629  34.293  1.00  0.00     0.157 HD
ATOM     16  HN1 UNL     1      18.798  81.223  33.842  1.00  0.00     0.157 HD
ENDBRANCH   9  14
ENDBRANCH   5   6
BRANCH   4  17
HETATM   17  O   UNL     1      20.694  73.617  36.884  1.00  0.00    -0.388 OA
ATOM     18  HO  UNL     1      20.939  72.969  36.234  1.00  0.00     0.210 HD
ENDBRANCH   4  17
BRANCH   3  19
HETATM   19  O   UNL     1      18.328  72.618  36.667  1.00  0.00    -0.390 OA
ATOM     20  HO  UNL     1      17.555  72.721  37.209  1.00  0.00     0.210 HD
ENDBRANCH   3  19
BRANCH   1  21
HETATM   21  C   UNL     1      18.004  72.925  33.371  1.00  0.00     0.217 C 
BRANCH  21  22
HETATM   22  O   UNL     1      17.222  71.960  33.919  1.00  0.00    -0.280 OA
BRANCH  22  23
HETATM   23  P   UNL     1      15.653  71.474  33.213  1.00  0.00     0.422 P 
HETATM   24  O   UNL     1      15.417  70.065  33.753  1.00  0.00    -0.617 OA
HETATM   25  O   UNL     1      14.726  72.542  33.783  1.00  0.00    -0.617 OA
HETATM   26  O   UNL     1      15.957  71.632  31.730  1.00  0.00    -0.617 OA
ENDBRANCH  22  23
ENDBRANCH  21  22
ENDBRANCH   1  21
TORSDOF 7
ENDMDL
MODEL 3
REMARK VINA RESULT:    -7.098      2.813      5.295
REMARK INTER + INTRA:         -10.001
REMARK INTER:                  -9.364
REMARK INTRA:                  -0.637
REMARK UNBOUND:                -0.620
REMARK  7 active torsions:
REMARK  status: ('A' for Active; 'I' for Inactive)
REMARK    1  A    between atoms: P_2  and  O_5 
REMARK    2  A    between atoms: O_5  and  C_6 
REMARK    3  A    between atoms: C_6  and  C_7 
REMARK    4  A    between atoms: C_9  and  O_10 
REMARK    5  A    between atoms: C_12  and  O_13 
REMARK    6  A    between atoms: C_15  and  N_16 
REMARK    7  A    between atoms: C_20  and  N_24 
ROOT
HETATM    1  C   UNL     1      17.913  74.374  33.914  1.00  0.00     0.180 C 
HETATM    2  O   UNL     1      16.900  73.417  34.201  1.00  0.00    -0.353 OA
HETATM    3  C   UNL     1      17.201  75.415  33.095  1.00  0.00     0.182 C 
HETATM    4  C   UNL     1      16.202  74.523  32.266  1.00  0.00     0.198 C 
HETATM    5  C   UNL     1      15.863  73.396  33.316  1.00  0.00     0.263 C 
ENDROOT
BRANCH   5   6
HETATM    6  N   UNL     1      14.568  73.683  34.049  1.00  0.00    -0.280 N 
HETATM    7  C   UNL     1      14.180  74.962  34.397  1.00  0.00     0.102 A 
HETATM    8  C   UNL     1      13.016  75.242  35.089  1.00  0.00     0.065 A 
HETATM    9  C   UNL     1      12.115  74.169  35.443  1.00  0.00     0.103 A 
HETATM   10  N   UNL     1      12.489  72.876  35.060  1.00  0.00    -0.295 N 
HETATM   11  C   UNL     1      13.691  72.532  34.383  1.00  0.00     0.330 A 
ATOM     12  HN  UNL     1      11.846  72.117  35.287  1.00  0.00     0.172 HD
HETATM   13  O   UNL     1      14.021  71.404  34.053  1.00  0.00    -0.246 OA
BRANCH   9  14
HETATM   14  N   UNL     1      10.948  74.371  36.126  1.00  0.00    -0.385 N 
ATOM     15  HN2 UNL     1      10.412  73.574  36.469  1.00  0.00     0.157 HD
ATOM     16  HN1 UNL     1      10.574  75.299  36.323  1.00  0.00     0.157 HD
ENDBRANCH   9  14
ENDBRANCH   5   6
BRANCH   4  17
HETATM   17  O   UNL     1      16.938  74.006  31.221  1.00  0.00    -0.388 OA
ATOM     18  HO  UNL     1      16.373  73.549  30.609  1.00  0.00     0.210 HD
ENDBRANCH   4  17
BRANCH   3  19
HETATM   19  O   UNL     1      17.954  76.166  32.192  1.00  0.00    -0.390 OA
ATOM     20  HO  UNL     1      18.900  76.089  32.230  1.00  0.00     0.210 HD
ENDBRANCH   3  19
BRANCH   1  21
HETATM   21  C   UNL     1      18.465  75.076  35.293  1.00  0.00     0.217 C 
BRANCH  21  22
HETATM   22  O   UNL     1      17.675  76.151  35.544  1.00  0.00    -0.280 OA
BRANCH  22  23
HETATM   23  P   UNL     1      18.307  77.823  35.582  1.00  0.00     0.422 P 
HETATM   24  O   UNL     1      19.359  77.855  34.475  1.00  0.00    -0.617 OA
HETATM   25  O   UNL     1      17.044  78.626  35.289  1.00  0.00    -0.617 OA
HETATM   26  O   UNL     1      18.783  77.906  37.026  1.00  0.00    -0.617 OA
ENDBRANCH  22  23
ENDBRANCH  21  22
ENDBRANCH   1  21
TORSDOF 7
ENDMDL
MODEL 4
REMARK VINA RESULT:    -6.835      3.829      4.414
REMARK INTER + INTRA:          -9.652
REMARK INTER:                  -9.169
REMARK INTRA:                  -0.483
REMARK UNBOUND:                -0.620
REMARK  7 active torsions:
REMARK  status: ('A' for Active; 'I' for Inactive)
REMARK    1  A    between atoms: P_2  and  O_5 
REMARK    2  A    between atoms: O_5  and  C_6 
REMARK    3  A    between atoms: C_6  and  C_7 
REMARK    4  A    between atoms: C_9  and  O_10 
REMARK    5  A    between atoms: C_12  and  O_13 
REMARK    6  A    between atoms: C_15  and  N_16 
REMARK    7  A    between atoms: C_20  and  N_24 
ROOT
HETATM    1  C   UNL     1      19.178  73.653  34.431  1.00  0.00     0.180 C 
HETATM    2  O   UNL     1      19.511  74.964  33.989  1.00  0.00    -0.353 OA
HETATM    3  C   UNL     1      18.230  73.891  35.574  1.00  0.00     0.182 C 
HETATM    4  C   UNL     1      18.842  75.193  36.215  1.00  0.00     0.198 C 
HETATM    5  C   UNL     1      19.370  75.940  34.930  1.00  0.00     0.263 C 
ENDROOT
BRANCH   5   6
HETATM    6  N   UNL     1      18.381  76.977  34.438  1.00  0.00    -0.280 N 
HETATM    7  C   UNL     1      17.844  76.946  33.165  1.00  0.00     0.102 A 
HETATM    8  C   UNL     1      16.962  77.898  32.688  1.00  0.00     0.065 A 
HETATM    9  C   UNL     1      16.524  78.969  33.554  1.00  0.00     0.103 A 
HETATM   10  N   UNL     1      17.039  78.983  34.855  1.00  0.00    -0.295 N 
HETATM   11  C   UNL     1      17.977  78.051  35.380  1.00  0.00     0.330 A 
ATOM     12  HN  UNL     1      16.716  79.723  35.478  1.00  0.00     0.172 HD
HETATM   13  O   UNL     1      18.431  78.064  36.513  1.00  0.00    -0.246 OA
BRANCH   9  14
HETATM   14  N   UNL     1      15.655  79.944  33.151  1.00  0.00    -0.385 N 
ATOM     15  HN2 UNL     1      15.770  80.901  33.483  1.00  0.00     0.157 HD
ATOM     16  HN1 UNL     1      14.878  79.766  32.514  1.00  0.00     0.157 HD
ENDBRANCH   9  14
ENDBRANCH   5   6
BRANCH   4  17
HETATM   17  O   UNL     1      19.896  74.769  36.996  1.00  0.00    -0.388 OA
ATOM     18  HO  UNL     1      19.615  74.640  37.894  1.00  0.00     0.210 HD
ENDBRANCH   4  17
BRANCH   3  19
HETATM   19  O   UNL     1      18.153  72.919  36.573  1.00  0.00    -0.390 OA
ATOM     20  HO  UNL     1      18.112  73.211  37.476  1.00  0.00     0.210 HD
ENDBRANCH   3  19
BRANCH   1  21
HETATM   21  C   UNL     1      18.388  72.820  33.256  1.00  0.00     0.217 C 
BRANCH  21  22
HETATM   22  O   UNL     1      17.515  71.982  33.872  1.00  0.00    -0.280 OA
BRANCH  22  23
HETATM   23  P   UNL     1      15.888  71.633  33.217  1.00  0.00     0.422 P 
HETATM   24  O   UNL     1      15.462  70.350  33.926  1.00  0.00    -0.617 OA
HETATM   25  O   UNL     1      15.123  72.883  33.639  1.00  0.00    -0.617 OA
HETATM   26  O   UNL     1      16.200  71.560  31.728  1.00  0.00    -0.617 OA
ENDBRANCH  22  23
ENDBRANCH  21  22
ENDBRANCH   1  21
TORSDOF 7
ENDMDL
MODEL 5
REMARK VINA RESULT:    -6.797      3.656      5.791
REMARK INTER + INTRA:          -9.603
REMARK INTER:                  -8.988
REMARK INTRA:                  -0.615
REMARK UNBOUND:                -0.620
REMARK  7 active torsions:
REMARK  status: ('A' for Active; 'I' for Inactive)
REMARK    1  A    between atoms: P_2  and  O_5 
REMARK    2  A    between atoms: O_5  and  C_6 
REMARK    3  A    between atoms: C_6  and  C_7 
REMARK    4  A    between atoms: C_9  and  O_10 
REMARK    5  A    between atoms: C_12  and  O_13 
REMARK    6  A    between atoms: C_15  and  N_16 
REMARK    7  A    between atoms: C_20  and  N_24 
ROOT
HETATM    1  C   UNL     1      15.964  75.227  34.521  1.00  0.00     0.180 C 
HETATM    2  O   UNL     1      17.355  74.978  34.357  1.00  0.00    -0.353 OA
HETATM    3  C   UNL     1      15.789  76.631  34.011  1.00  0.00     0.182 C 
HETATM    4  C   UNL     1      17.135  77.300  34.485  1.00  0.00     0.198 C 
HETATM    5  C   UNL     1      18.139  76.092  34.333  1.00  0.00     0.263 C 
ENDROOT
BRANCH   5   6
HETATM    6  N   UNL     1      18.892  76.152  33.020  1.00  0.00    -0.280 N 
HETATM    7  C   UNL     1      18.412  75.572  31.861  1.00  0.00     0.102 A 
HETATM    8  C   UNL     1      19.095  75.592  30.660  1.00  0.00     0.065 A 
HETATM    9  C   UNL     1      20.362  76.283  30.566  1.00  0.00     0.103 A 
HETATM   10  N   UNL     1      20.834  76.900  31.729  1.00  0.00    -0.295 N 
HETATM   11  C   UNL     1      20.188  76.876  32.996  1.00  0.00     0.330 A 
ATOM     12  HN  UNL     1      21.716  77.410  31.663  1.00  0.00     0.172 HD
HETATM   13  O   UNL     1      20.601  77.411  34.013  1.00  0.00    -0.246 OA
BRANCH   9  14
HETATM   14  N   UNL     1      21.093  76.343  29.413  1.00  0.00    -0.385 N 
ATOM     15  HN2 UNL     1      22.086  76.572  29.448  1.00  0.00     0.157 HD
ATOM     16  HN1 UNL     1      20.693  76.162  28.492  1.00  0.00     0.157 HD
ENDBRANCH   9  14
ENDBRANCH   5   6
BRANCH   4  17
HETATM   17  O   UNL     1      16.951  77.612  35.816  1.00  0.00    -0.388 OA
ATOM     18  HO  UNL     1      17.528  78.322  36.074  1.00  0.00     0.210 HD
ENDBRANCH   4  17
BRANCH   3  19
HETATM   19  O   UNL     1      14.733  77.387  34.523  1.00  0.00    -0.390 OA
ATOM     20  HO  UNL     1      14.763  78.329  34.406  1.00  0.00     0.210 HD
ENDBRANCH   3  19
BRANCH   1  21
HETATM   21  C   UNL     1      15.072  74.213  33.587  1.00  0.00     0.217 C 
BRANCH  21  22
HETATM   22  O   UNL     1      15.938  73.497  32.824  1.00  0.00    -0.280 OA
BRANCH  22  23
HETATM   23  P   UNL     1      16.249  71.757  33.092  1.00  0.00     0.422 P 
HETATM   24  O   UNL     1      15.593  71.459  34.439  1.00  0.00    -0.617 OA
HETATM   25  O   UNL     1      15.546  71.140  31.886  1.00  0.00    -0.617 OA
HETATM   26  O   UNL     1      17.769  71.733  33.013  1.00  0.00    -0.617 OA
ENDBRANCH  22  23
ENDBRANCH  21  22
ENDBRANCH   1  21
TORSDOF 7
ENDMDL
MODEL 6
REMARK VINA RESULT:    -6.706      3.099      5.662
REMARK INTER + INTRA:          -9.483
REMARK INTER:                  -8.647
REMARK INTRA:                  -0.835
REMARK UNBOUND:                -0.620
REMARK  7 active torsions:
REMARK  status: ('A' for Active; 'I' for Inactive)
REMARK    1  A    between atoms: P_2  and  O_5 
REMARK    2  A    between atoms: O_5  and  C_6 
REMARK    3  A    between atoms: C_6  and  C_7 
REMARK    4  A    between atoms: C_9  and  O_10 
REMARK    5  A    between atoms: C_12  and  O_13 
REMARK    6  A    between atoms: C_15  and  N_16 
REMARK    7  A    between atoms: C_20  and  N_24 
ROOT
HETATM    1  C   UNL     1      17.658  75.482  34.124  1.00  0.00     0.180 C 
HETATM    2  O   UNL     1      16.857  74.522  34.804  1.00  0.00    -0.353 OA
HETATM    3  C   UNL     1      16.835  75.846  32.919  1.00  0.00     0.182 C 
HETATM    4  C   UNL     1      16.167  74.462  32.572  1.00  0.00     0.198 C 
HETATM    5  C   UNL     1      15.966  73.857  34.016  1.00  0.00     0.263 C 
ENDROOT
BRANCH   5   6
HETATM    6  N   UNL     1      14.561  74.094  34.531  1.00  0.00    -0.280 N 
HETATM    7  C   UNL     1      14.124  75.335  34.955  1.00  0.00     0.102 A 
HETATM    8  C   UNL     1      12.856  75.566  35.454  1.00  0.00     0.065 A 
HETATM    9  C   UNL     1      11.898  74.485  35.508  1.00  0.00     0.103 A 
HETATM   10  N   UNL     1      12.325  73.236  35.047  1.00  0.00    -0.295 N 
HETATM   11  C   UNL     1      13.629  72.938  34.561  1.00  0.00     0.330 A 
ATOM     12  HN  UNL     1      11.646  72.475  35.060  1.00  0.00     0.172 HD
HETATM   13  O   UNL     1      14.005  71.848  34.163  1.00  0.00    -0.246 OA
BRANCH   9  14
HETATM   14  N   UNL     1      10.628  74.640  35.988  1.00  0.00    -0.385 N 
ATOM     15  HN2 UNL     1      10.478  74.912  36.961  1.00  0.00     0.157 HD
ATOM     16  HN1 UNL     1       9.796  74.502  35.414  1.00  0.00     0.157 HD
ENDBRANCH   9  14
ENDBRANCH   5   6
BRANCH   4  17
HETATM   17  O   UNL     1      17.121  73.748  31.878  1.00  0.00    -0.388 OA
ATOM     18  HO  UNL     1      16.823  72.860  31.720  1.00  0.00     0.210 HD
ENDBRANCH   4  17
BRANCH   3  19
HETATM   19  O   UNL     1      17.505  76.295  31.780  1.00  0.00    -0.390 OA
ATOM     20  HO  UNL     1      16.998  76.743  31.113  1.00  0.00     0.210 HD
ENDBRANCH   3  19
BRANCH   1  21
HETATM   21  C   UNL     1      17.869  76.827  35.043  1.00  0.00     0.217 C 
BRANCH  21  22
HETATM   22  O   UNL     1      18.288  77.820  34.218  1.00  0.00    -0.280 OA
BRANCH  22  23
HETATM   23  P   UNL     1      17.394  79.356  34.025  1.00  0.00     0.422 P 
HETATM   24  O   UNL     1      18.417  80.436  34.370  1.00  0.00    -0.617 OA
HETATM   25  O   UNL     1      17.004  79.290  32.552  1.00  0.00    -0.617 OA
HETATM   26  O   UNL     1      16.240  79.126  34.991  1.00  0.00    -0.617 OA
ENDBRANCH  22  23
ENDBRANCH  21  22
ENDBRANCH   1  21
TORSDOF 7
ENDMDL
MODEL 7
REMARK VINA RESULT:    -6.614      4.578      6.188
REMARK INTER + INTRA:          -9.361
REMARK INTER:                  -8.853
REMARK INTRA:                  -0.508
REMARK UNBOUND:                -0.620
REMARK  7 active torsions:
REMARK  status: ('A' for Active; 'I' for Inactive)
REMARK    1  A    between atoms: P_2  and  O_5 
REMARK    2  A    between atoms: O_5  and  C_6 
REMARK    3  A    between atoms: C_6  and  C_7 
REMARK    4  A    between atoms: C_9  and  O_10 
REMARK    5  A    between atoms: C_12  and  O_13 
REMARK    6  A    between atoms: C_15  and  N_16 
REMARK    7  A    between atoms: C_20  and  N_24 
ROOT
HETATM    1  C   UNL     1      19.448  77.090  35.512  1.00  0.00     0.180 C 
HETATM    2  O   UNL     1      18.936  75.850  35.986  1.00  0.00    -0.353 OA
HETATM    3  C   UNL     1      20.091  76.734  34.200  1.00  0.00     0.182 C 
HETATM    4  C   UNL     1      20.671  75.305  34.520  1.00  0.00     0.198 C 
HETATM    5  C   UNL     1      19.566  74.745  35.497  1.00  0.00     0.263 C 
ENDROOT
BRANCH   5   6
HETATM    6  N   UNL     1      18.563  73.874  34.768  1.00  0.00    -0.280 N 
HETATM    7  C   UNL     1      18.356  73.961  33.404  1.00  0.00     0.102 A 
HETATM    8  C   UNL     1      17.428  73.194  32.725  1.00  0.00     0.065 A 
HETATM    9  C   UNL     1      16.646  72.211  33.441  1.00  0.00     0.103 A 
HETATM   10  N   UNL     1      16.878  72.097  34.816  1.00  0.00    -0.295 N 
HETATM   11  C   UNL     1      17.792  72.887  35.566  1.00  0.00     0.330 A 
ATOM     12  HN  UNL     1      16.346  71.389  35.322  1.00  0.00     0.172 HD
HETATM   13  O   UNL     1      17.993  72.791  36.766  1.00  0.00    -0.246 OA
BRANCH   9  14
HETATM   14  N   UNL     1      15.711  71.420  32.835  1.00  0.00    -0.385 N 
ATOM     15  HN2 UNL     1      14.721  71.663  32.891  1.00  0.00     0.157 HD
ATOM     16  HN1 UNL     1      15.951  70.579  32.310  1.00  0.00     0.157 HD
ENDBRANCH   9  14
ENDBRANCH   5   6
BRANCH   4  17
HETATM   17  O   UNL     1      21.852  75.521  35.199  1.00  0.00    -0.388 OA
ATOM     18  HO  UNL     1      22.316  76.264  34.831  1.00  0.00     0.210 HD
ENDBRANCH   4  17
BRANCH   3  19
HETATM   19  O   UNL     1      21.144  77.531  33.750  1.00  0.00    -0.390 OA
ATOM     20  HO  UNL     1      22.028  77.276  33.986  1.00  0.00     0.210 HD
ENDBRANCH   3  19
BRANCH   1  21
HETATM   21  C   UNL     1      18.232  78.158  35.230  1.00  0.00     0.217 C 
BRANCH  21  22
HETATM   22  O   UNL     1      17.065  77.530  35.527  1.00  0.00    -0.280 OA
BRANCH  22  23
HETATM   23  P   UNL     1      15.696  77.447  34.381  1.00  0.00     0.422 P 
HETATM   24  O   UNL     1      16.132  76.411  33.346  1.00  0.00    -0.617 OA
HETATM   25  O   UNL     1      14.564  76.997  35.300  1.00  0.00    -0.617 OA
HETATM   26  O   UNL     1      15.611  78.903  33.946  1.00  0.00    -0.617 OA
ENDBRANCH  22  23
ENDBRANCH  21  22
ENDBRANCH   1  21
TORSDOF 7
ENDMDL
MODEL 8
REMARK VINA RESULT:    -6.520      3.544      4.789
REMARK INTER + INTRA:          -9.236
REMARK INTER:                  -8.429
REMARK INTRA:                  -0.807
REMARK UNBOUND:                -0.620
REMARK  7 active torsions:
REMARK  status: ('A' for Active; 'I' for Inactive)
REMARK    1  A    between atoms: P_2  and  O_5 
REMARK    2  A    between atoms: O_5  and  C_6 
REMARK    3  A    between atoms: C_6  and  C_7 
REMARK    4  A    between atoms: C_9  and  O_10 
REMARK    5  A    between atoms: C_12  and  O_13 
REMARK    6  A    between atoms: C_15  and  N_16 
REMARK    7  A    between atoms: C_20  and  N_24 
ROOT
HETATM    1  C   UNL     1      20.155  76.916  33.824  1.00  0.00     0.180 C 
HETATM    2  O   UNL     1      18.895  77.441  34.229  1.00  0.00    -0.353 OA
HETATM    3  C   UNL     1      20.188  75.546  34.442  1.00  0.00     0.182 C 
HETATM    4  C   UNL     1      19.443  75.806  35.806  1.00  0.00     0.198 C 
HETATM    5  C   UNL     1      18.384  76.890  35.367  1.00  0.00     0.263 C 
ENDROOT
BRANCH   5   6
HETATM    6  N   UNL     1      17.036  76.267  35.065  1.00  0.00    -0.280 N 
HETATM    7  C   UNL     1      16.876  74.911  34.854  1.00  0.00     0.102 A 
HETATM    8  C   UNL     1      15.660  74.327  34.551  1.00  0.00     0.065 A 
HETATM    9  C   UNL     1      14.468  75.142  34.485  1.00  0.00     0.103 A 
HETATM   10  N   UNL     1      14.622  76.510  34.732  1.00  0.00    -0.295 N 
HETATM   11  C   UNL     1      15.854  77.164  35.010  1.00  0.00     0.330 A 
ATOM     12  HN  UNL     1      13.781  77.087  34.711  1.00  0.00     0.172 HD
HETATM   13  O   UNL     1      15.992  78.359  35.222  1.00  0.00    -0.246 OA
BRANCH   9  14
HETATM   14  N   UNL     1      13.234  74.634  34.191  1.00  0.00    -0.385 N 
ATOM     15  HN2 UNL     1      12.779  74.873  33.309  1.00  0.00     0.157 HD
ATOM     16  HN1 UNL     1      12.729  74.006  34.816  1.00  0.00     0.157 HD
ENDBRANCH   9  14
ENDBRANCH   5   6
BRANCH   4  17
HETATM   17  O   UNL     1      20.383  76.361  36.648  1.00  0.00    -0.388 OA
ATOM     18  HO  UNL     1      21.101  75.755  36.792  1.00  0.00     0.210 HD
ENDBRANCH   4  17
BRANCH   3  19
HETATM   19  O   UNL     1      21.434  74.990  34.736  1.00  0.00    -0.390 OA
ATOM     20  HO  UNL     1      22.139  75.580  34.976  1.00  0.00     0.210 HD
ENDBRANCH   3  19
BRANCH   1  21
HETATM   21  C   UNL     1      20.226  76.759  32.190  1.00  0.00     0.217 C 
BRANCH  21  22
HETATM   22  O   UNL     1      19.747  75.526  31.881  1.00  0.00    -0.280 OA
BRANCH  22  23
HETATM   23  P   UNL     1      18.145  75.275  31.128  1.00  0.00     0.422 P 
HETATM   24  O   UNL     1      17.342  76.511  31.527  1.00  0.00    -0.617 OA
HETATM   25  O   UNL     1      18.519  75.202  29.651  1.00  0.00    -0.617 OA
HETATM   26  O   UNL     1      17.758  73.938  31.745  1.00  0.00    -0.617 OA
ENDBRANCH  22  23
ENDBRANCH  21  22
ENDBRANCH   1  21
TORSDOF 7
ENDMDL
MODEL 9
REMARK VINA RESULT:    -6.499      4.453      5.718
REMARK INTER + INTRA:          -9.209
REMARK INTER:                  -8.406
REMARK INTRA:                  -0.803
REMARK UNBOUND:                -0.620
REMARK  7 active torsions:
REMARK  status: ('A' for Active; 'I' for Inactive)
REMARK    1  A    between atoms: P_2  and  O_5 
REMARK    2  A    between atoms: O_5  and  C_6 
REMARK    3  A    between atoms: C_6  and  C_7 
REMARK    4  A    between atoms: C_9  and  O_10 
REMARK    5  A    between atoms: C_12  and  O_13 
REMARK    6  A    between atoms: C_15  and  N_16 
REMARK    7  A    between atoms: C_20  and  N_24 
ROOT
HETATM    1  C   UNL     1      18.913  73.326  34.265  1.00  0.00     0.180 C 
HETATM    2  O   UNL     1      19.281  74.456  33.481  1.00  0.00    -0.353 OA
HETATM    3  C   UNL     1      19.106  73.795  35.681  1.00  0.00     0.182 C 
HETATM    4  C   UNL     1      20.374  74.718  35.529  1.00  0.00     0.198 C 
HETATM    5  C   UNL     1      20.131  75.327  34.095  1.00  0.00     0.263 C 
ENDROOT
BRANCH   5   6
HETATM    6  N   UNL     1      19.484  76.695  34.169  1.00  0.00    -0.280 N 
HETATM    7  C   UNL     1      18.732  77.103  35.255  1.00  0.00     0.102 A 
HETATM    8  C   UNL     1      18.111  78.336  35.331  1.00  0.00     0.065 A 
HETATM    9  C   UNL     1      18.272  79.288  34.255  1.00  0.00     0.103 A 
HETATM   10  N   UNL     1      19.061  78.891  33.170  1.00  0.00    -0.295 N 
HETATM   11  C   UNL     1      19.688  77.622  33.028  1.00  0.00     0.330 A 
ATOM     12  HN  UNL     1      19.197  79.567  32.419  1.00  0.00     0.172 HD
HETATM   13  O   UNL     1      20.373  77.272  32.080  1.00  0.00    -0.246 OA
BRANCH   9  14
HETATM   14  N   UNL     1      17.688  80.524  34.262  1.00  0.00    -0.385 N 
ATOM     15  HN2 UNL     1      17.413  80.964  33.383  1.00  0.00     0.157 HD
ATOM     16  HN1 UNL     1      17.501  81.045  35.118  1.00  0.00     0.157 HD
ENDBRANCH   9  14
ENDBRANCH   5   6
BRANCH   4  17
HETATM   17  O   UNL     1      21.459  73.867  35.516  1.00  0.00    -0.388 OA
ATOM     18  HO  UNL     1      22.152  74.202  36.072  1.00  0.00     0.210 HD
ENDBRANCH   4  17
BRANCH   3  19
HETATM   19  O   UNL     1      19.390  72.836  36.655  1.00  0.00    -0.390 OA
ATOM     20  HO  UNL     1      18.749  72.152  36.805  1.00  0.00     0.210 HD
ENDBRANCH   3  19
BRANCH   1  21
HETATM   21  C   UNL     1      17.329  72.951  34.046  1.00  0.00     0.217 C 
BRANCH  21  22
HETATM   22  O   UNL     1      16.793  73.908  33.245  1.00  0.00    -0.280 OA
BRANCH  22  23
HETATM   23  P   UNL     1      15.585  75.090  33.828  1.00  0.00     0.422 P 
HETATM   24  O   UNL     1      14.239  74.444  33.507  1.00  0.00    -0.617 OA
HETATM   25  O   UNL     1      15.926  75.155  35.314  1.00  0.00    -0.617 OA
HETATM   26  O   UNL     1      15.999  76.321  33.034  1.00  0.00    -0.617 OA
ENDBRANCH  22  23
ENDBRANCH  21  22
ENDBRANCH   1  21
TORSDOF 7
ENDMDL
MODEL 10
REMARK VINA RESULT:    -6.468      3.651      5.320
REMARK INTER + INTRA:          -9.168
REMARK INTER:                  -8.426
REMARK INTRA:                  -0.743
REMARK UNBOUND:                -0.620
REMARK  7 active torsions:
REMARK  status: ('A' for Active; 'I' for Inactive)
REMARK    1  A    between atoms: P_2  and  O_5 
REMARK    2  A    between atoms: O_5  and  C_6 
REMARK    3  A    between atoms: C_6  and  C_7 
REMARK    4  A    between atoms: C_9  and  O_10 
REMARK    5  A    between atoms: C_12  and  O_13 
REMARK    6  A    between atoms: C_15  and  N_16 
REMARK    7  A    between atoms: C_20  and  N_24 
ROOT
HETATM    1  C   UNL     1      16.452  74.623  34.320  1.00  0.00     0.180 C 
HETATM    2  O   UNL     1      17.067  75.685  35.042  1.00  0.00    -0.353 OA
HETATM    3  C   UNL     1      15.510  75.326  33.382  1.00  0.00     0.182 C 
HETATM    4  C   UNL     1      15.029  76.531  34.274  1.00  0.00     0.198 C 
HETATM    5  C   UNL     1      16.339  76.836  35.098  1.00  0.00     0.263 C 
ENDROOT
BRANCH   5   6
HETATM    6  N   UNL     1      17.137  77.968  34.483  1.00  0.00    -0.280 N 
HETATM    7  C   UNL     1      16.855  78.481  33.231  1.00  0.00     0.102 A 
HETATM    8  C   UNL     1      17.587  79.494  32.641  1.00  0.00     0.065 A 
HETATM    9  C   UNL     1      18.684  80.100  33.361  1.00  0.00     0.103 A 
HETATM   10  N   UNL     1      18.950  79.607  34.642  1.00  0.00    -0.295 N 
HETATM   11  C   UNL     1      18.252  78.542  35.277  1.00  0.00     0.330 A 
ATOM     12  HN  UNL     1      19.708  80.047  35.164  1.00  0.00     0.172 HD
HETATM   13  O   UNL     1      18.486  78.107  36.393  1.00  0.00    -0.246 OA
BRANCH   9  14
HETATM   14  N   UNL     1      19.450  81.105  32.840  1.00  0.00    -0.385 N 
ATOM     15  HN2 UNL     1      20.445  80.953  32.669  1.00  0.00     0.157 HD
ATOM     16  HN1 UNL     1      19.075  82.023  32.601  1.00  0.00     0.157 HD
ENDBRANCH   9  14
ENDBRANCH   5   6
BRANCH   4  17
HETATM   17  O   UNL     1      14.048  76.020  35.098  1.00  0.00    -0.388 OA
ATOM     18  HO  UNL     1      13.192  76.120  34.698  1.00  0.00     0.210 HD
ENDBRANCH   4  17
BRANCH   3  19
HETATM   19  O   UNL     1      14.377  74.634  32.951  1.00  0.00    -0.390 OA
ATOM     20  HO  UNL     1      13.582  75.130  32.804  1.00  0.00     0.210 HD
ENDBRANCH   3  19
BRANCH   1  21
HETATM   21  C   UNL     1      17.561  73.797  33.433  1.00  0.00     0.217 C 
BRANCH  21  22
HETATM   22  O   UNL     1      17.311  72.473  33.603  1.00  0.00    -0.280 OA
BRANCH  22  23
HETATM   23  P   UNL     1      16.094  71.590  32.636  1.00  0.00     0.422 P 
HETATM   24  O   UNL     1      16.663  70.178  32.512  1.00  0.00    -0.617 OA
HETATM   25  O   UNL     1      14.862  71.708  33.527  1.00  0.00    -0.617 OA
HETATM   26  O   UNL     1      16.052  72.459  31.386  1.00  0.00    -0.617 OA
ENDBRANCH  22  23
ENDBRANCH  21  22
ENDBRANCH   1  21
TORSDOF 7
ENDMDL
MODEL 11
REMARK VINA RESULT:    -6.448      5.032      6.806
REMARK INTER + INTRA:          -9.141
REMARK INTER:                  -8.314
REMARK INTRA:                  -0.827
REMARK UNBOUND:                -0.620
REMARK  7 active torsions:
REMARK  status: ('A' for Active; 'I' for Inactive)
REMARK    1  A    between atoms: P_2  and  O_5 
REMARK    2  A    between atoms: O_5  and  C_6 
REMARK    3  A    between atoms: C_6  and  C_7 
REMARK    4  A    between atoms: C_9  and  O_10 
REMARK    5  A    between atoms: C_12  and  O_13 
REMARK    6  A    between atoms: C_15  and  N_16 
REMARK    7  A    between atoms: C_20  and  N_24 
ROOT
HETATM    1  C   UNL     1      18.272  74.174  34.553  1.00  0.00     0.180 C 
HETATM    2  O   UNL     1      18.729  74.706  33.315  1.00  0.00    -0.353 OA
HETATM    3  C   UNL     1      18.974  75.013  35.585  1.00  0.00     0.182 C 
HETATM    4  C   UNL     1      20.367  75.254  34.889  1.00  0.00     0.198 C 
HETATM    5  C   UNL     1      19.933  75.342  33.374  1.00  0.00     0.263 C 
ENDROOT
BRANCH   5   6
HETATM    6  N   UNL     1      19.768  76.779  32.922  1.00  0.00    -0.280 N 
HETATM    7  C   UNL     1      19.501  77.809  33.803  1.00  0.00     0.102 A 
HETATM    8  C   UNL     1      19.320  79.121  33.408  1.00  0.00     0.065 A 
HETATM    9  C   UNL     1      19.452  79.475  32.012  1.00  0.00     0.103 A 
HETATM   10  N   UNL     1      19.755  78.440  31.122  1.00  0.00    -0.295 N 
HETATM   11  C   UNL     1      19.914  77.071  31.473  1.00  0.00     0.330 A 
ATOM     12  HN  UNL     1      19.873  78.687  30.140  1.00  0.00     0.172 HD
HETATM   13  O   UNL     1      20.174  76.165  30.697  1.00  0.00    -0.246 OA
BRANCH   9  14
HETATM   14  N   UNL     1      19.286  80.750  31.550  1.00  0.00    -0.385 N 
ATOM     15  HN2 UNL     1      18.513  81.322  31.891  1.00  0.00     0.157 HD
ATOM     16  HN1 UNL     1      19.911  81.179  30.867  1.00  0.00     0.157 HD
ENDBRANCH   9  14
ENDBRANCH   5   6
BRANCH   4  17
HETATM   17  O   UNL     1      21.103  74.110  35.115  1.00  0.00    -0.388 OA
ATOM     18  HO  UNL     1      21.994  74.221  34.804  1.00  0.00     0.210 HD
ENDBRANCH   4  17
BRANCH   3  19
HETATM   19  O   UNL     1      19.215  74.445  36.837  1.00  0.00    -0.390 OA
ATOM     20  HO  UNL     1      19.176  75.012  37.598  1.00  0.00     0.210 HD
ENDBRANCH   3  19
BRANCH   1  21
HETATM   21  C   UNL     1      16.651  74.384  34.719  1.00  0.00     0.217 C 
BRANCH  21  22
HETATM   22  O   UNL     1      16.460  75.546  35.396  1.00  0.00    -0.280 OA
BRANCH  22  23
HETATM   23  P   UNL     1      15.621  76.953  34.680  1.00  0.00     0.422 P 
HETATM   24  O   UNL     1      16.258  78.161  35.364  1.00  0.00    -0.617 OA
HETATM   25  O   UNL     1      15.974  76.791  33.205  1.00  0.00    -0.617 OA
HETATM   26  O   UNL     1      14.176  76.615  35.021  1.00  0.00    -0.617 OA
ENDBRANCH  22  23
ENDBRANCH  21  22
ENDBRANCH   1  21
TORSDOF 7
ENDMDL
MODEL 12
REMARK VINA RESULT:    -6.447      4.444      5.853
REMARK INTER + INTRA:          -9.140
REMARK INTER:                  -8.404
REMARK INTRA:                  -0.736
REMARK UNBOUND:                -0.620
REMARK  7 active torsions:
REMARK  status: ('A' for Active; 'I' for Inactive)
REMARK    1  A    between atoms: P_2  and  O_5 
REMARK    2  A    between atoms: O_5  and  C_6 
REMARK    3  A    between atoms: C_6  and  C_7 
REMARK    4  A    between atoms: C_9  and  O_10 
REMARK    5  A    between atoms: C_12  and  O_13 
REMARK    6  A    between atoms: C_15  and  N_16 
REMARK    7  A    between atoms: C_20  and  N_24 
ROOT
HETATM    1  C   UNL     1      16.996  77.638  32.303  1.00  0.00     0.180 C 
HETATM    2  O   UNL     1      17.456  77.704  33.648  1.00  0.00    -0.353 OA
HETATM    3  C   UNL     1      18.159  77.045  31.556  1.00  0.00     0.182 C 
HETATM    4  C   UNL     1      19.376  77.692  32.318  1.00  0.00     0.198 C 
HETATM    5  C   UNL     1      18.810  77.753  33.789  1.00  0.00     0.263 C 
ENDROOT
BRANCH   5   6
HETATM    6  N   UNL     1      19.274  76.571  34.617  1.00  0.00    -0.280 N 
HETATM    7  C   UNL     1      19.849  75.449  34.052  1.00  0.00     0.102 A 
HETATM    8  C   UNL     1      20.254  74.349  34.786  1.00  0.00     0.065 A 
HETATM    9  C   UNL     1      20.123  74.360  36.226  1.00  0.00     0.103 A 
HETATM   10  N   UNL     1      19.574  75.510  36.804  1.00  0.00    -0.295 N 
HETATM   11  C   UNL     1      19.108  76.649  36.091  1.00  0.00     0.330 A 
ATOM     12  HN  UNL     1      19.501  75.533  37.821  1.00  0.00     0.172 HD
HETATM   13  O   UNL     1      18.624  77.651  36.593  1.00  0.00    -0.246 OA
BRANCH   9  14
HETATM   14  N   UNL     1      20.502  73.310  37.015  1.00  0.00    -0.385 N 
ATOM     15  HN2 UNL     1      21.469  73.228  37.328  1.00  0.00     0.157 HD
ATOM     16  HN1 UNL     1      19.853  72.586  37.324  1.00  0.00     0.157 HD
ENDBRANCH   9  14
ENDBRANCH   5   6
BRANCH   4  17
HETATM   17  O   UNL     1      19.512  78.963  31.799  1.00  0.00    -0.388 OA
ATOM     18  HO  UNL     1      20.430  79.175  31.674  1.00  0.00     0.210 HD
ENDBRANCH   4  17
BRANCH   3  19
HETATM   19  O   UNL     1      18.292  77.352  30.201  1.00  0.00    -0.390 OA
ATOM     20  HO  UNL     1      18.865  78.070  29.961  1.00  0.00     0.210 HD
ENDBRANCH   3  19
BRANCH   1  21
HETATM   21  C   UNL     1      15.712  76.622  32.171  1.00  0.00     0.217 C 
BRANCH  21  22
HETATM   22  O   UNL     1      16.185  75.355  32.287  1.00  0.00    -0.280 OA
BRANCH  22  23
HETATM   23  P   UNL     1      15.555  74.197  33.495  1.00  0.00     0.422 P 
HETATM   24  O   UNL     1      14.063  74.514  33.579  1.00  0.00    -0.617 OA
HETATM   25  O   UNL     1      15.891  72.864  32.835  1.00  0.00    -0.617 OA
HETATM   26  O   UNL     1      16.430  74.544  34.692  1.00  0.00    -0.617 OA
ENDBRANCH  22  23
ENDBRANCH  21  22
ENDBRANCH   1  21
TORSDOF 7
ENDMDL
MODEL 13
REMARK VINA RESULT:    -6.371      8.585     10.448
REMARK INTER + INTRA:          -9.039
REMARK INTER:                  -8.234
REMARK INTRA:                  -0.805
REMARK UNBOUND:                -0.620
REMARK  7 active torsions:
REMARK  status: ('A' for Active; 'I' for Inactive)
REMARK    1  A    between atoms: P_2  and  O_5 
REMARK    2  A    between atoms: O_5  and  C_6 
REMARK    3  A    between atoms: C_6  and  C_7 
REMARK    4  A    between atoms: C_9  and  O_10 
REMARK    5  A    between atoms: C_12  and  O_13 
REMARK    6  A    between atoms: C_15  and  N_16 
REMARK    7  A    between atoms: C_20  and  N_24 
ROOT
HETATM    1  C   UNL     1      18.965  71.504  26.211  1.00  0.00     0.180 C 
HETATM    2  O   UNL     1      19.906  72.372  26.833  1.00  0.00    -0.353 OA
HETATM    3  C   UNL     1      17.963  72.443  25.597  1.00  0.00     0.182 C 
HETATM    4  C   UNL     1      17.922  73.594  26.671  1.00  0.00     0.198 C 
HETATM    5  C   UNL     1      19.422  73.604  27.158  1.00  0.00     0.263 C 
ENDROOT
BRANCH   5   6
HETATM    6  N   UNL     1      20.235  74.669  26.450  1.00  0.00    -0.280 N 
HETATM    7  C   UNL     1      19.896  75.153  25.201  1.00  0.00     0.102 A 
HETATM    8  C   UNL     1      20.638  76.104  24.526  1.00  0.00     0.065 A 
HETATM    9  C   UNL     1      21.811  76.674  25.149  1.00  0.00     0.103 A 
HETATM   10  N   UNL     1      22.137  76.212  26.428  1.00  0.00    -0.295 N 
HETATM   11  C   UNL     1      21.429  75.209  27.147  1.00  0.00     0.330 A 
ATOM     12  HN  UNL     1      22.950  76.627  26.883  1.00  0.00     0.172 HD
HETATM   13  O   UNL     1      21.714  74.801  28.262  1.00  0.00    -0.246 OA
BRANCH   9  14
HETATM   14  N   UNL     1      22.592  77.618  24.542  1.00  0.00    -0.385 N 
ATOM     15  HN2 UNL     1      23.007  78.370  25.093  1.00  0.00     0.157 HD
ATOM     16  HN1 UNL     1      22.795  77.610  23.542  1.00  0.00     0.157 HD
ENDBRANCH   9  14
ENDBRANCH   5   6
BRANCH   4  17
HETATM   17  O   UNL     1      17.090  73.142  27.675  1.00  0.00    -0.388 OA
ATOM     18  HO  UNL     1      16.769  72.271  27.474  1.00  0.00     0.210 HD
ENDBRANCH   4  17
BRANCH   3  19
HETATM   19  O   UNL     1      16.659  71.981  25.415  1.00  0.00    -0.390 OA
ATOM     20  HO  UNL     1      16.375  71.235  25.930  1.00  0.00     0.210 HD
ENDBRANCH   3  19
BRANCH   1  21
HETATM   21  C   UNL     1      19.673  70.632  25.013  1.00  0.00     0.217 C 
BRANCH  21  22
HETATM   22  O   UNL     1      18.746  70.458  24.036  1.00  0.00    -0.280 OA
BRANCH  22  23
HETATM   23  P   UNL     1      17.890  68.909  23.785  1.00  0.00     0.422 P 
HETATM   24  O   UNL     1      17.222  69.063  22.420  1.00  0.00    -0.617 OA
HETATM   25  O   UNL     1      19.049  67.918  23.824  1.00  0.00    -0.617 OA
HETATM   26  O   UNL     1      16.999  68.883  25.020  1.00  0.00    -0.617 OA
ENDBRANCH  22  23
ENDBRANCH  21  22
ENDBRANCH   1  21
TORSDOF 7
ENDMDL
MODEL 14
REMARK VINA RESULT:    -6.369      8.547     10.339
REMARK INTER + INTRA:          -9.037
REMARK INTER:                  -8.239
REMARK INTRA:                  -0.798
REMARK UNBOUND:                -0.620
REMARK  7 active torsions:
REMARK  status: ('A' for Active; 'I' for Inactive)
REMARK    1  A    between atoms: P_2  and  O_5 
REMARK    2  A    between atoms: O_5  and  C_6 
REMARK    3  A    between atoms: C_6  and  C_7 
REMARK    4  A    between atoms: C_9  and  O_10 
REMARK    5  A    between atoms: C_12  and  O_13 
REMARK    6  A    between atoms: C_15  and  N_16 
REMARK    7  A    between atoms: C_20  and  N_24 
ROOT
HETATM    1  C   UNL     1      18.021  71.216  25.633  1.00  0.00     0.180 C 
HETATM    2  O   UNL     1      18.534  72.068  26.650  1.00  0.00    -0.353 OA
HETATM    3  C   UNL     1      17.665  72.163  24.519  1.00  0.00     0.182 C 
HETATM    4  C   UNL     1      17.154  73.413  25.330  1.00  0.00     0.198 C 
HETATM    5  C   UNL     1      18.099  73.358  26.592  1.00  0.00     0.263 C 
ENDROOT
BRANCH   5   6
HETATM    6  N   UNL     1      19.288  74.286  26.443  1.00  0.00    -0.280 N 
HETATM    7  C   UNL     1      19.850  74.581  25.215  1.00  0.00     0.102 A 
HETATM    8  C   UNL     1      20.951  75.402  25.060  1.00  0.00     0.065 A 
HETATM    9  C   UNL     1      21.542  76.036  26.217  1.00  0.00     0.103 A 
HETATM   10  N   UNL     1      20.953  75.767  27.457  1.00  0.00    -0.295 N 
HETATM   11  C   UNL     1      19.846  74.901  27.673  1.00  0.00     0.330 A 
ATOM     12  HN  UNL     1      21.351  76.230  28.274  1.00  0.00     0.172 HD
HETATM   13  O   UNL     1      19.334  74.661  28.755  1.00  0.00    -0.246 OA
BRANCH   9  14
HETATM   14  N   UNL     1      22.630  76.860  26.139  1.00  0.00    -0.385 N 
ATOM     15  HN2 UNL     1      23.324  76.862  26.887  1.00  0.00     0.157 HD
ATOM     16  HN1 UNL     1      22.798  77.486  25.351  1.00  0.00     0.157 HD
ENDBRANCH   9  14
ENDBRANCH   5   6
BRANCH   4  17
HETATM   17  O   UNL     1      15.853  73.124  25.686  1.00  0.00    -0.388 OA
ATOM     18  HO  UNL     1      15.806  72.875  26.602  1.00  0.00     0.210 HD
ENDBRANCH   4  17
BRANCH   3  19
HETATM   19  O   UNL     1      16.654  71.784  23.635  1.00  0.00    -0.390 OA
ATOM     20  HO  UNL     1      15.833  72.260  23.668  1.00  0.00     0.210 HD
ENDBRANCH   3  19
BRANCH   1  21
HETATM   21  C   UNL     1      19.177  70.181  25.095  1.00  0.00     0.217 C 
BRANCH  21  22
HETATM   22  O   UNL     1      18.817  69.784  23.847  1.00  0.00    -0.280 OA
BRANCH  22  23
HETATM   23  P   UNL     1      17.873  68.297  23.544  1.00  0.00     0.422 P 
HETATM   24  O   UNL     1      18.872  67.340  22.897  1.00  0.00    -0.617 OA
HETATM   25  O   UNL     1      17.448  67.919  24.959  1.00  0.00    -0.617 OA
HETATM   26  O   UNL     1      16.751  68.855  22.679  1.00  0.00    -0.617 OA
ENDBRANCH  22  23
ENDBRANCH  21  22
ENDBRANCH   1  21
TORSDOF 7
ENDMDL
MODEL 15
REMARK VINA RESULT:    -6.360      3.263      5.305
REMARK INTER + INTRA:          -9.025
REMARK INTER:                  -8.328
REMARK INTRA:                  -0.697
REMARK UNBOUND:                -0.620
REMARK  7 active torsions:
REMARK  status: ('A' for Active; 'I' for Inactive)
REMARK    1  A    between atoms: P_2  and  O_5 
REMARK    2  A    between atoms: O_5  and  C_6 
REMARK    3  A    between atoms: C_6  and  C_7 
REMARK    4  A    between atoms: C_9  and  O_10 
REMARK    5  A    between atoms: C_12  and  O_13 
REMARK    6  A    between atoms: C_15  and  N_16 
REMARK    7  A    between atoms: C_20  and  N_24 
ROOT
HETATM    1  C   UNL     1      14.990  76.030  33.915  1.00  0.00     0.180 C 
HETATM    2  O   UNL     1      15.933  76.316  34.942  1.00  0.00    -0.353 OA
HETATM    3  C   UNL     1      15.817  76.026  32.659  1.00  0.00     0.182 C 
HETATM    4  C   UNL     1      16.857  77.168  32.972  1.00  0.00     0.198 C 
HETATM    5  C   UNL     1      17.048  76.981  34.527  1.00  0.00     0.263 C 
ENDROOT
BRANCH   5   6
HETATM    6  N   UNL     1      18.277  76.153  34.845  1.00  0.00    -0.280 N 
HETATM    7  C   UNL     1      18.674  75.083  34.065  1.00  0.00     0.102 A 
HETATM    8  C   UNL     1      19.775  74.299  34.352  1.00  0.00     0.065 A 
HETATM    9  C   UNL     1      20.601  74.613  35.496  1.00  0.00     0.103 A 
HETATM   10  N   UNL     1      20.222  75.716  36.268  1.00  0.00    -0.295 N 
HETATM   11  C   UNL     1      19.078  76.530  36.036  1.00  0.00     0.330 A 
ATOM     12  HN  UNL     1      20.814  75.956  37.063  1.00  0.00     0.172 HD
HETATM   13  O   UNL     1      18.743  77.490  36.711  1.00  0.00    -0.246 OA
BRANCH   9  14
HETATM   14  N   UNL     1      21.704  73.882  35.841  1.00  0.00    -0.385 N 
ATOM     15  HN2 UNL     1      21.594  72.959  36.263  1.00  0.00     0.157 HD
ATOM     16  HN1 UNL     1      22.657  74.212  35.691  1.00  0.00     0.157 HD
ENDBRANCH   9  14
ENDBRANCH   5   6
BRANCH   4  17
HETATM   17  O   UNL     1      16.205  78.353  32.704  1.00  0.00    -0.388 OA
ATOM     18  HO  UNL     1      16.831  79.042  32.515  1.00  0.00     0.210 HD
ENDBRANCH   4  17
BRANCH   3  19
HETATM   19  O   UNL     1      15.184  76.342  31.457  1.00  0.00    -0.390 OA
ATOM     20  HO  UNL     1      15.380  75.809  30.697  1.00  0.00     0.210 HD
ENDBRANCH   3  19
BRANCH   1  21
HETATM   21  C   UNL     1      14.335  74.538  34.119  1.00  0.00     0.217 C 
BRANCH  21  22
HETATM   22  O   UNL     1      14.821  73.743  33.131  1.00  0.00    -0.280 OA
BRANCH  22  23
HETATM   23  P   UNL     1      15.625  72.181  33.458  1.00  0.00     0.422 P 
HETATM   24  O   UNL     1      16.589  72.485  34.604  1.00  0.00    -0.617 OA
HETATM   25  O   UNL     1      14.435  71.306  33.838  1.00  0.00    -0.617 OA
HETATM   26  O   UNL     1      16.214  71.881  32.086  1.00  0.00    -0.617 OA
ENDBRANCH  22  23
ENDBRANCH  21  22
ENDBRANCH   1  21
TORSDOF 7
ENDMDL
MODEL 16
REMARK VINA RESULT:    -6.344      3.714      6.072
REMARK INTER + INTRA:          -9.004
REMARK INTER:                  -8.318
REMARK INTRA:                  -0.686
REMARK UNBOUND:                -0.620
REMARK  7 active torsions:
REMARK  status: ('A' for Active; 'I' for Inactive)
REMARK    1  A    between atoms: P_2  and  O_5 
REMARK    2  A    between atoms: O_5  and  C_6 
REMARK    3  A    between atoms: C_6  and  C_7 
REMARK    4  A    between atoms: C_9  and  O_10 
REMARK    5  A    between atoms: C_12  and  O_13 
REMARK    6  A    between atoms: C_15  and  N_16 
REMARK    7  A    between atoms: C_20  and  N_24 
ROOT
HETATM    1  C   UNL     1      16.707  73.815  34.725  1.00  0.00     0.180 C 
HETATM    2  O   UNL     1      16.612  75.182  35.111  1.00  0.00    -0.353 OA
HETATM    3  C   UNL     1      16.374  73.833  33.258  1.00  0.00     0.182 C 
HETATM    4  C   UNL     1      15.278  74.963  33.206  1.00  0.00     0.198 C 
HETATM    5  C   UNL     1      15.807  75.946  34.320  1.00  0.00     0.263 C 
ENDROOT
BRANCH   5   6
HETATM    6  N   UNL     1      16.615  77.083  33.728  1.00  0.00    -0.280 N 
HETATM    7  C   UNL     1      17.317  76.957  32.544  1.00  0.00     0.102 A 
HETATM    8  C   UNL     1      18.081  77.973  32.001  1.00  0.00     0.065 A 
HETATM    9  C   UNL     1      18.136  79.260  32.656  1.00  0.00     0.103 A 
HETATM   10  N   UNL     1      17.397  79.402  33.836  1.00  0.00    -0.295 N 
HETATM   11  C   UNL     1      16.628  78.378  34.455  1.00  0.00     0.330 A 
ATOM     12  HN  UNL     1      17.413  80.314  34.291  1.00  0.00     0.172 HD
HETATM   13  O   UNL     1      15.987  78.498  35.487  1.00  0.00    -0.246 OA
BRANCH   9  14
HETATM   14  N   UNL     1      18.869  80.309  32.177  1.00  0.00    -0.385 N 
ATOM     15  HN2 UNL     1      18.862  81.204  32.667  1.00  0.00     0.157 HD
ATOM     16  HN1 UNL     1      19.445  80.246  31.338  1.00  0.00     0.157 HD
ENDBRANCH   9  14
ENDBRANCH   5   6
BRANCH   4  17
HETATM   17  O   UNL     1      14.102  74.365  33.607  1.00  0.00    -0.388 OA
ATOM     18  HO  UNL     1      14.228  73.896  34.423  1.00  0.00     0.210 HD
ENDBRANCH   4  17
BRANCH   3  19
HETATM   19  O   UNL     1      15.826  72.679  32.697  1.00  0.00    -0.390 OA
ATOM     20  HO  UNL     1      16.298  71.863  32.808  1.00  0.00     0.210 HD
ENDBRANCH   3  19
BRANCH   1  21
HETATM   21  C   UNL     1      18.241  73.258  34.911  1.00  0.00     0.217 C 
BRANCH  21  22
HETATM   22  O   UNL     1      19.073  74.163  34.335  1.00  0.00    -0.280 OA
BRANCH  22  23
HETATM   23  P   UNL     1      20.226  75.151  35.279  1.00  0.00     0.422 P 
HETATM   24  O   UNL     1      19.587  75.260  36.661  1.00  0.00    -0.617 OA
HETATM   25  O   UNL     1      21.480  74.284  35.219  1.00  0.00    -0.617 OA
HETATM   26  O   UNL     1      20.287  76.404  34.416  1.00  0.00    -0.617 OA
ENDBRANCH  22  23
ENDBRANCH  21  22
ENDBRANCH   1  21
TORSDOF 7
ENDMDL
MODEL 17
REMARK VINA RESULT:    -6.284      9.037     11.007
REMARK INTER + INTRA:          -8.924
REMARK INTER:                  -8.023
REMARK INTRA:                  -0.901
REMARK UNBOUND:                -0.620
REMARK  7 active torsions:
REMARK  status: ('A' for Active; 'I' for Inactive)
REMARK    1  A    between atoms: P_2  and  O_5 
REMARK    2  A    between atoms: O_5  and  C_6 
REMARK    3  A    between atoms: C_6  and  C_7 
REMARK    4  A    between atoms: C_9  and  O_10 
REMARK    5  A    between atoms: C_12  and  O_13 
REMARK    6  A    between atoms: C_15  and  N_16 
REMARK    7  A    between atoms: C_20  and  N_24 
ROOT
HETATM    1  C   UNL     1      19.178  74.337  25.270  1.00  0.00     0.180 C 
HETATM    2  O   UNL     1      18.413  73.531  24.381  1.00  0.00    -0.353 OA
HETATM    3  C   UNL     1      18.815  73.814  26.632  1.00  0.00     0.182 C 
HETATM    4  C   UNL     1      17.293  73.462  26.430  1.00  0.00     0.198 C 
HETATM    5  C   UNL     1      17.293  72.979  24.928  1.00  0.00     0.263 C 
ENDROOT
BRANCH   5   6
HETATM    6  N   UNL     1      17.373  71.469  24.825  1.00  0.00    -0.280 N 
HETATM    7  C   UNL     1      18.575  70.790  24.779  1.00  0.00     0.102 A 
HETATM    8  C   UNL     1      18.669  69.416  24.658  1.00  0.00     0.065 A 
HETATM    9  C   UNL     1      17.467  68.615  24.619  1.00  0.00     0.103 A 
HETATM   10  N   UNL     1      16.248  69.297  24.700  1.00  0.00    -0.295 N 
HETATM   11  C   UNL     1      16.098  70.709  24.787  1.00  0.00     0.330 A 
ATOM     12  HN  UNL     1      15.397  68.735  24.697  1.00  0.00     0.172 HD
HETATM   13  O   UNL     1      15.035  71.306  24.854  1.00  0.00    -0.246 OA
BRANCH   9  14
HETATM   14  N   UNL     1      17.483  67.253  24.500  1.00  0.00    -0.385 N 
ATOM     15  HN2 UNL     1      16.970  66.800  23.744  1.00  0.00     0.157 HD
ATOM     16  HN1 UNL     1      17.998  66.647  25.138  1.00  0.00     0.157 HD
ENDBRANCH   9  14
ENDBRANCH   5   6
BRANCH   4  17
HETATM   17  O   UNL     1      16.612  74.655  26.554  1.00  0.00    -0.388 OA
ATOM     18  HO  UNL     1      17.197  75.389  26.412  1.00  0.00     0.210 HD
ENDBRANCH   4  17
BRANCH   3  19
HETATM   19  O   UNL     1      18.912  74.687  27.716  1.00  0.00    -0.390 OA
ATOM     20  HO  UNL     1      18.904  75.620  27.538  1.00  0.00     0.210 HD
ENDBRANCH   3  19
BRANCH   1  21
HETATM   21  C   UNL     1      20.787  74.110  25.030  1.00  0.00     0.217 C 
BRANCH  21  22
HETATM   22  O   UNL     1      21.442  74.773  26.017  1.00  0.00    -0.280 OA
BRANCH  22  23
HETATM   23  P   UNL     1      21.748  76.534  25.958  1.00  0.00     0.422 P 
HETATM   24  O   UNL     1      21.873  76.845  24.468  1.00  0.00    -0.617 OA
HETATM   25  O   UNL     1      20.487  77.078  26.622  1.00  0.00    -0.617 OA
HETATM   26  O   UNL     1      23.000  76.625  26.818  1.00  0.00    -0.617 OA
ENDBRANCH  22  23
ENDBRANCH  21  22
ENDBRANCH   1  21
TORSDOF 7
ENDMDL
MODEL 18
REMARK VINA RESULT:    -6.268     10.419     11.414
REMARK INTER + INTRA:          -8.904
REMARK INTER:                  -8.154
REMARK INTRA:                  -0.750
REMARK UNBOUND:                -0.620
REMARK  7 active torsions:
REMARK  status: ('A' for Active; 'I' for Inactive)
REMARK    1  A    between atoms: P_2  and  O_5 
REMARK    2  A    between atoms: O_5  and  C_6 
REMARK    3  A    between atoms: C_6  and  C_7 
REMARK    4  A    between atoms: C_9  and  O_10 
REMARK    5  A    between atoms: C_12  and  O_13 
REMARK    6  A    between atoms: C_15  and  N_16 
REMARK    7  A    between atoms: C_20  and  N_24 
ROOT
HETATM    1  C   UNL     1      17.337  69.709  23.055  1.00  0.00     0.180 C 
HETATM    2  O   UNL     1      18.497  70.513  22.877  1.00  0.00    -0.353 OA
HETATM    3  C   UNL     1      17.037  69.834  24.524  1.00  0.00     0.182 C 
HETATM    4  C   UNL     1      18.489  69.896  25.130  1.00  0.00     0.198 C 
HETATM    5  C   UNL     1      19.253  70.686  23.997  1.00  0.00     0.263 C 
ENDROOT
BRANCH   5   6
HETATM    6  N   UNL     1      19.354  72.164  24.316  1.00  0.00    -0.280 N 
HETATM    7  C   UNL     1      18.252  72.998  24.328  1.00  0.00     0.102 A 
HETATM    8  C   UNL     1      18.325  74.353  24.588  1.00  0.00     0.065 A 
HETATM    9  C   UNL     1      19.600  74.954  24.912  1.00  0.00     0.103 A 
HETATM   10  N   UNL     1      20.713  74.105  24.934  1.00  0.00    -0.295 N 
HETATM   11  C   UNL     1      20.695  72.715  24.637  1.00  0.00     0.330 A 
ATOM     12  HN  UNL     1      21.611  74.519  25.185  1.00  0.00     0.172 HD
HETATM   13  O   UNL     1      21.665  71.974  24.651  1.00  0.00    -0.246 OA
BRANCH   9  14
HETATM   14  N   UNL     1      19.749  76.286  25.180  1.00  0.00    -0.385 N 
ATOM     15  HN2 UNL     1      19.230  76.977  24.638  1.00  0.00     0.157 HD
ATOM     16  HN1 UNL     1      20.361  76.639  25.915  1.00  0.00     0.157 HD
ENDBRANCH   9  14
ENDBRANCH   5   6
BRANCH   4  17
HETATM   17  O   UNL     1      18.928  68.590  25.189  1.00  0.00    -0.388 OA
ATOM     18  HO  UNL     1      18.857  68.254  26.075  1.00  0.00     0.210 HD
ENDBRANCH   4  17
BRANCH   3  19
HETATM   19  O   UNL     1      16.359  68.784  25.145  1.00  0.00    -0.390 OA
ATOM     20  HO  UNL     1      15.938  68.137  24.592  1.00  0.00     0.210 HD
ENDBRANCH   3  19
BRANCH   1  21
HETATM   21  C   UNL     1      16.068  70.313  22.205  1.00  0.00     0.217 C 
BRANCH  21  22
HETATM   22  O   UNL     1      15.053  69.416  22.300  1.00  0.00    -0.280 OA
BRANCH  22  23
HETATM   23  P   UNL     1      13.397  69.882  22.789  1.00  0.00     0.422 P 
HETATM   24  O   UNL     1      13.065  71.082  21.904  1.00  0.00    -0.617 OA
HETATM   25  O   UNL     1      12.621  68.610  22.462  1.00  0.00    -0.617 OA
HETATM   26  O   UNL     1      13.607  70.125  24.277  1.00  0.00    -0.617 OA
ENDBRANCH  22  23
ENDBRANCH  21  22
ENDBRANCH   1  21
TORSDOF 7
ENDMDL
MODEL 19
REMARK VINA RESULT:    -6.239      9.240     10.681
REMARK INTER + INTRA:          -8.865
REMARK INTER:                  -8.314
REMARK INTRA:                  -0.550
REMARK UNBOUND:                -0.620
REMARK  7 active torsions:
REMARK  status: ('A' for Active; 'I' for Inactive)
REMARK    1  A    between atoms: P_2  and  O_5 
REMARK    2  A    between atoms: O_5  and  C_6 
REMARK    3  A    between atoms: C_6  and  C_7 
REMARK    4  A    between atoms: C_9  and  O_10 
REMARK    5  A    between atoms: C_12  and  O_13 
REMARK    6  A    between atoms: C_15  and  N_16 
REMARK    7  A    between atoms: C_20  and  N_24 
ROOT
HETATM    1  C   UNL     1      18.835  71.881  24.728  1.00  0.00     0.180 C 
HETATM    2  O   UNL     1      19.707  72.920  24.297  1.00  0.00    -0.353 OA
HETATM    3  C   UNL     1      18.089  72.495  25.881  1.00  0.00     0.182 C 
HETATM    4  C   UNL     1      19.211  73.390  26.531  1.00  0.00     0.198 C 
HETATM    5  C   UNL     1      20.010  73.846  25.249  1.00  0.00     0.263 C 
ENDROOT
BRANCH   5   6
HETATM    6  N   UNL     1      19.573  75.218  24.776  1.00  0.00    -0.280 N 
HETATM    7  C   UNL     1      18.284  75.483  24.354  1.00  0.00     0.102 A 
HETATM    8  C   UNL     1      17.873  76.720  23.894  1.00  0.00     0.065 A 
HETATM    9  C   UNL     1      18.803  77.826  23.880  1.00  0.00     0.103 A 
HETATM   10  N   UNL     1      20.100  77.570  24.339  1.00  0.00    -0.295 N 
HETATM   11  C   UNL     1      20.581  76.308  24.786  1.00  0.00     0.330 A 
ATOM     12  HN  UNL     1      20.754  78.352  24.353  1.00  0.00     0.172 HD
HETATM   13  O   UNL     1      21.713  76.081  25.182  1.00  0.00    -0.246 OA
BRANCH   9  14
HETATM   14  N   UNL     1      18.468  79.075  23.438  1.00  0.00    -0.385 N 
ATOM     15  HN2 UNL     1      18.873  79.900  23.880  1.00  0.00     0.157 HD
ATOM     16  HN1 UNL     1      17.820  79.235  22.666  1.00  0.00     0.157 HD
ENDBRANCH   9  14
ENDBRANCH   5   6
BRANCH   4  17
HETATM   17  O   UNL     1      19.975  72.536  27.299  1.00  0.00    -0.388 OA
ATOM     18  HO  UNL     1      20.874  72.527  26.992  1.00  0.00     0.210 HD
ENDBRANCH   4  17
BRANCH   3  19
HETATM   19  O   UNL     1      17.596  71.642  26.870  1.00  0.00    -0.390 OA
ATOM     20  HO  UNL     1      18.140  71.485  27.633  1.00  0.00     0.210 HD
ENDBRANCH   3  19
BRANCH   1  21
HETATM   21  C   UNL     1      17.757  71.493  23.551  1.00  0.00     0.217 C 
BRANCH  21  22
HETATM   22  O   UNL     1      18.124  70.287  23.047  1.00  0.00    -0.280 OA
BRANCH  22  23
HETATM   23  P   UNL     1      17.889  68.756  23.940  1.00  0.00     0.422 P 
HETATM   24  O   UNL     1      16.945  69.126  25.082  1.00  0.00    -0.617 OA
HETATM   25  O   UNL     1      17.273  67.872  22.860  1.00  0.00    -0.617 OA
HETATM   26  O   UNL     1      19.332  68.414  24.285  1.00  0.00    -0.617 OA
ENDBRANCH  22  23
ENDBRANCH  21  22
ENDBRANCH   1  21
TORSDOF 7
ENDMDL
MODEL 20
REMARK VINA RESULT:    -6.224      3.239      5.807
REMARK INTER + INTRA:          -8.845
REMARK INTER:                  -8.285
REMARK INTRA:                  -0.560
REMARK UNBOUND:                -0.620
REMARK  7 active torsions:
REMARK  status: ('A' for Active; 'I' for Inactive)
REMARK    1  A    between atoms: P_2  and  O_5 
REMARK    2  A    between atoms: O_5  and  C_6 
REMARK    3  A    between atoms: C_6  and  C_7 
REMARK    4  A    between atoms: C_9  and  O_10 
REMARK    5  A    between atoms: C_12  and  O_13 
REMARK    6  A    between atoms: C_15  and  N_16 
REMARK    7  A    between atoms: C_20  and  N_24 
ROOT
HETATM    1  C   UNL     1      19.166  75.367  32.986  1.00  0.00     0.180 C 
HETATM    2  O   UNL     1      18.560  74.093  33.170  1.00  0.00    -0.353 OA
HETATM    3  C   UNL     1      18.114  76.163  32.263  1.00  0.00     0.182 C 
HETATM    4  C   UNL     1      17.473  75.058  31.342  1.00  0.00     0.198 C 
HETATM    5  C   UNL     1      17.576  73.792  32.276  1.00  0.00     0.263 C 
ENDROOT
BRANCH   5   6
HETATM    6  N   UNL     1      16.280  73.535  33.019  1.00  0.00    -0.280 N 
HETATM    7  C   UNL     1      15.393  74.546  33.334  1.00  0.00     0.102 A 
HETATM    8  C   UNL     1      14.219  74.338  34.034  1.00  0.00     0.065 A 
HETATM    9  C   UNL     1      13.850  72.999  34.434  1.00  0.00     0.103 A 
HETATM   10  N   UNL     1      14.730  71.968  34.086  1.00  0.00    -0.295 N 
HETATM   11  C   UNL     1      15.965  72.136  33.402  1.00  0.00     0.330 A 
ATOM     12  HN  UNL     1      14.463  71.019  34.345  1.00  0.00     0.172 HD
HETATM   13  O   UNL     1      16.736  71.239  33.101  1.00  0.00    -0.246 OA
BRANCH   9  14
HETATM   14  N   UNL     1      12.706  72.718  35.128  1.00  0.00    -0.385 N 
ATOM     15  HN2 UNL     1      12.640  72.948  36.120  1.00  0.00     0.157 HD
ATOM     16  HN1 UNL     1      11.888  72.285  34.698  1.00  0.00     0.157 HD
ENDBRANCH   9  14
ENDBRANCH   5   6
BRANCH   4  17
HETATM   17  O   UNL     1      18.319  74.932  30.260  1.00  0.00    -0.388 OA
ATOM     18  HO  UNL     1      17.942  75.344  29.492  1.00  0.00     0.210 HD
ENDBRANCH   4  17
BRANCH   3  19
HETATM   19  O   UNL     1      18.535  77.211  31.443  1.00  0.00    -0.390 OA
ATOM     20  HO  UNL     1      19.129  77.008  30.731  1.00  0.00     0.210 HD
ENDBRANCH   3  19
BRANCH   1  21
HETATM   21  C   UNL     1      19.469  76.087  34.432  1.00  0.00     0.217 C 
BRANCH  21  22
HETATM   22  O   UNL     1      18.273  76.447  34.964  1.00  0.00    -0.280 OA
BRANCH  22  23
HETATM   23  P   UNL     1      17.920  78.115  35.501  1.00  0.00     0.422 P 
HETATM   24  O   UNL     1      16.399  78.228  35.408  1.00  0.00    -0.617 OA
HETATM   25  O   UNL     1      18.475  78.095  36.921  1.00  0.00    -0.617 OA
HETATM   26  O   UNL     1      18.759  78.908  34.509  1.00  0.00    -0.617 OA
ENDBRANCH  22  23
ENDBRANCH  21  22
ENDBRANCH   1  21
TORSDOF 7
ENDMDL
