REMARK  4 active torsions:
REMARK  status: ('A' for Active; 'I' for Inactive)
REMARK       I    between atoms: C_1  and  N_14 
REMARK    1  A    between atoms: C_1  and  C_16 
REMARK    2  A    between atoms: C_2  and  C_11 
REMARK    3  A    between atoms: C_3  and  N_14 
REMARK    4  A    between atoms: C_6  and  N_22 
ROOT
HETATM    1  C   UNL     1      -2.448  23.591   1.920  1.00  0.00     0.152 A 
HETATM    2  C   UNL     1      -2.263  24.905   0.170  1.00  0.00     0.073 A 
HETATM    3  C   UNL     1      -2.033  25.280  -1.179  1.00  0.00     0.040 A 
HETATM    4  C   UNL     1      -2.294  26.589  -1.564  1.00  0.00     0.044 A 
HETATM    5  C   UNL     1      -2.839  27.498  -0.665  1.00  0.00     0.043 A 
HETATM    6  N   UNL     1      -2.060  23.631   0.687  1.00  0.00    -0.334 N 
ATOM      7  HN  UNL     1      -1.664  22.845   0.171  1.00  0.00     0.168 HD
HETATM    8  C   UNL     1      -3.045  27.126   0.662  1.00  0.00     0.039 A 
HETATM    9  C   UNL     1      -2.823  25.810   1.042  1.00  0.00     0.038 A 
HETATM   10  S   UNL     1      -3.042  25.092   2.612  1.00  0.00    -0.052 SA
ENDROOT
BRANCH   1  11
HETATM   11  N   UNL     1      -2.440  22.397   2.607  1.00  0.00    -0.302 N 
HETATM   12  C   UNL     1      -2.788  22.286   3.920  1.00  0.00     0.276 C 
HETATM   13  O   UNL     1      -2.921  23.285   4.632  1.00  0.00    -0.266 OA
ATOM     14  HN  UNL     1      -2.159  21.553   2.108  1.00  0.00     0.171 HD
BRANCH  12  15
HETATM   15  C   UNL     1      -2.961  20.930   4.470  1.00  0.00     0.125 A 
HETATM   16  N   UNL     1      -3.040  20.752   5.846  1.00  0.00    -0.353 N 
HETATM   17  C   UNL     1      -3.209  19.436   6.123  1.00  0.00     0.029 A 
ATOM     18  HN  UNL     1      -2.980  21.497   6.540  1.00  0.00     0.166 HD
HETATM   19  C   UNL     1      -3.157  18.760   4.919  1.00  0.00     0.080 A 
HETATM   20  C   UNL     1      -3.356  18.928   7.525  1.00  0.00     0.070 C 
HETATM   21  C   UNL     1      -3.033  19.680   3.909  1.00  0.00     0.090 A 
HETATM   22 CL   UNL     1      -3.355  17.070   4.680  1.00  0.00    -0.080 Cl
HETATM   23 CL   UNL     1      -2.955  19.284   2.245  1.00  0.00    -0.080 Cl
ENDBRANCH  12  15
ENDBRANCH   1  11
BRANCH   3  24
HETATM   24  N   UNL     1      -1.484  24.341  -2.068  1.00  0.00    -0.277 NA
HETATM   25  C   UNL     1      -1.689  24.650  -3.486  1.00  0.00     0.122 C 
HETATM   26  C   UNL     1      -1.294  23.441  -4.303  1.00  0.00     0.182 C 
HETATM   27  O   UNL     1       0.082  23.133  -4.097  1.00  0.00    -0.389 OA
HETATM   28  C   UNL     1       0.331  22.842  -2.719  1.00  0.00     0.182 C 
HETATM   29  C   UNL     1      -0.082  23.998  -1.829  1.00  0.00     0.122 C 
ENDBRANCH   3  24
BRANCH   5  30
HETATM   30  C   UNL     1      -3.139  28.904  -1.094  1.00  0.00     0.209 C 
HETATM   31  O   UNL     1      -2.717  29.273  -2.216  1.00  0.00    -0.644 OA
HETATM   32  O   UNL     1      -3.854  29.619  -0.361  1.00  0.00    -0.644 OA
ENDBRANCH   5  30
TORSDOF 4
