MODEL 1
REMARK VINA RESULT:    -7.413      0.000      0.000
REMARK INTER + INTRA:         -11.723
REMARK INTER:                 -10.664
REMARK INTRA:                  -1.059
REMARK UNBOUND:                -1.059
REMARK  9 active torsions:
REMARK  status: ('A' for Active; 'I' for Inactive)
REMARK    1  A    between atoms: P_1  and  O_8 
REMARK    2  A    between atoms: P_5  and  O_9 
REMARK    3  A    between atoms: P_5  and  O_8 
REMARK    4  A    between atoms: O_9  and  C_10 
REMARK    5  A    between atoms: C_10  and  C_11 
REMARK    6  A    between atoms: C_13  and  O_14 
REMARK    7  A    between atoms: C_16  and  O_17 
REMARK    8  A    between atoms: C_19  and  N_20 
REMARK    9  A    between atoms: C_25  and  N_26 
ROOT
HETATM    1  C   UNL     1      20.679 -38.274 -52.903  1.00  0.00     0.180 C 
HETATM    2  O   UNL     1      20.783 -37.364 -54.029  1.00  0.00    -0.353 OA
HETATM    3  C   UNL     1      20.654 -39.690 -53.501  1.00  0.00     0.182 C 
HETATM    4  C   UNL     1      21.123 -39.464 -54.939  1.00  0.00     0.198 C 
HETATM    5  C   UNL     1      20.569 -38.074 -55.224  1.00  0.00     0.262 C 
ENDROOT
BRANCH   5   6
HETATM    6  N   UNL     1      21.280 -37.415 -56.309  1.00  0.00    -0.297 N 
HETATM    7  C   UNL     1      20.897 -37.376 -57.626  1.00  0.00     0.188 A 
HETATM    8  N   UNL     1      21.710 -36.684 -58.383  1.00  0.00    -0.346 N 
HETATM    9  C   UNL     1      22.690 -36.232 -57.513  1.00  0.00     0.122 A 
ATOM     10  HN  UNL     1      21.638 -36.515 -59.387  1.00  0.00     0.167 HD
HETATM   11  C   UNL     1      23.839 -35.442 -57.709  1.00  0.00     0.131 A 
HETATM   12  C   UNL     1      22.434 -36.674 -56.230  1.00  0.00     0.142 A 
HETATM   13  N   UNL     1      24.607 -35.179 -56.627  1.00  0.00    -0.337 N 
HETATM   14  C   UNL     1      24.232 -35.675 -55.442  1.00  0.00     0.183 A 
ATOM     15  HN  UNL     1      25.453 -34.615 -56.713  1.00  0.00     0.168 HD
HETATM   16  N   UNL     1      23.177 -36.425 -55.140  1.00  0.00    -0.336 N 
ATOM     17  HN  UNL     1      22.960 -36.766 -54.204  1.00  0.00     0.168 HD
BRANCH  11  18
HETATM   18  N   UNL     1      24.205 -34.950 -58.889  1.00  0.00    -0.383 N 
ATOM     19  HN2 UNL     1      24.870 -34.186 -59.003  1.00  0.00     0.157 HD
ATOM     20  HN1 UNL     1      23.801 -35.352 -59.735  1.00  0.00     0.157 HD
ENDBRANCH  11  18
ENDBRANCH   5   6
BRANCH   4  21
HETATM   21  O   UNL     1      20.637 -40.432 -55.843  1.00  0.00    -0.388 OA
ATOM     22  HO  UNL     1      20.094 -41.093 -55.430  1.00  0.00     0.210 HD
ENDBRANCH   4  21
BRANCH   1  23
HETATM   23  C   UNL     1      21.797 -37.976 -51.937  1.00  0.00     0.216 C 
BRANCH  23  24
HETATM   24  O   UNL     1      21.469 -38.586 -50.670  1.00  0.00    -0.287 OA
BRANCH  24  25
HETATM   25  P   UNL     1      21.062 -37.699 -49.399  1.00  0.00     0.418 P 
HETATM   26  O   UNL     1      22.070 -37.874 -48.312  1.00  0.00    -0.624 OA
HETATM   27  O   UNL     1      20.755 -36.315 -49.864  1.00  0.00    -0.624 OA
BRANCH  25  28
HETATM   28  O   UNL     1      19.691 -38.391 -48.944  1.00  0.00    -0.173 OA
BRANCH  28  29
HETATM   29  P   UNL     1      18.909 -38.324 -47.536  1.00  0.00     0.431 P 
HETATM   30  O   UNL     1      19.368 -39.525 -46.746  1.00  0.00    -0.616 OA
HETATM   31  O   UNL     1      17.446 -38.387 -47.897  1.00  0.00    -0.616 OA
HETATM   32  O   UNL     1      19.302 -37.012 -46.909  1.00  0.00    -0.616 OA
ENDBRANCH  28  29
ENDBRANCH  25  28
ENDBRANCH  24  25
ENDBRANCH  23  24
ENDBRANCH   1  23
BRANCH   3  33
HETATM   33  O   UNL     1      19.339 -40.227 -53.492  1.00  0.00    -0.390 OA
ATOM     34  HO  UNL     1      19.084 -40.494 -52.617  1.00  0.00     0.210 HD
ENDBRANCH   3  33
TORSDOF 9
ENDMDL
MODEL 2
REMARK VINA RESULT:    -7.337      2.435      4.437
REMARK INTER + INTRA:         -11.613
REMARK INTER:                 -10.145
REMARK INTRA:                  -1.468
REMARK UNBOUND:                -1.059
REMARK  9 active torsions:
REMARK  status: ('A' for Active; 'I' for Inactive)
REMARK    1  A    between atoms: P_1  and  O_8 
REMARK    2  A    between atoms: P_5  and  O_9 
REMARK    3  A    between atoms: P_5  and  O_8 
REMARK    4  A    between atoms: O_9  and  C_10 
REMARK    5  A    between atoms: C_10  and  C_11 
REMARK    6  A    between atoms: C_13  and  O_14 
REMARK    7  A    between atoms: C_16  and  O_17 
REMARK    8  A    between atoms: C_19  and  N_20 
REMARK    9  A    between atoms: C_25  and  N_26 
ROOT
HETATM    1  C   UNL     1      24.074 -38.803 -49.553  1.00  0.00     0.180 C 
HETATM    2  O   UNL     1      24.264 -38.816 -50.992  1.00  0.00    -0.353 OA
HETATM    3  C   UNL     1      24.717 -37.499 -49.052  1.00  0.00     0.182 C 
HETATM    4  C   UNL     1      24.904 -36.692 -50.337  1.00  0.00     0.198 C 
HETATM    5  C   UNL     1      25.160 -37.796 -51.355  1.00  0.00     0.262 C 
ENDROOT
BRANCH   5   6
HETATM    6  N   UNL     1      24.873 -37.363 -52.713  1.00  0.00    -0.297 N 
HETATM    7  C   UNL     1      25.782 -36.883 -53.623  1.00  0.00     0.188 A 
HETATM    8  N   UNL     1      25.252 -36.598 -54.785  1.00  0.00    -0.346 N 
HETATM    9  C   UNL     1      23.909 -36.912 -54.638  1.00  0.00     0.122 A 
ATOM     10  HN  UNL     1      25.721 -36.227 -55.612  1.00  0.00     0.167 HD
HETATM   11  C   UNL     1      22.817 -36.831 -55.523  1.00  0.00     0.131 A 
HETATM   12  C   UNL     1      23.664 -37.389 -53.366  1.00  0.00     0.142 A 
HETATM   13  N   UNL     1      21.608 -37.223 -55.057  1.00  0.00    -0.337 N 
HETATM   14  C   UNL     1      21.522 -37.665 -53.797  1.00  0.00     0.183 A 
ATOM     15  HN  UNL     1      20.782 -37.181 -55.653  1.00  0.00     0.168 HD
HETATM   16  N   UNL     1      22.478 -37.786 -52.881  1.00  0.00    -0.336 N 
ATOM     17  HN  UNL     1      22.329 -38.134 -51.934  1.00  0.00     0.168 HD
BRANCH  11  18
HETATM   18  N   UNL     1      22.909 -36.393 -56.774  1.00  0.00    -0.383 N 
ATOM     19  HN2 UNL     1      22.143 -35.943 -57.276  1.00  0.00     0.157 HD
ATOM     20  HN1 UNL     1      23.792 -36.509 -57.271  1.00  0.00     0.157 HD
ENDBRANCH  11  18
ENDBRANCH   5   6
BRANCH   4  21
HETATM   21  O   UNL     1      25.968 -35.768 -50.266  1.00  0.00    -0.388 OA
ATOM     22  HO  UNL     1      26.353 -35.704 -49.400  1.00  0.00     0.210 HD
ENDBRANCH   4  21
BRANCH   1  23
HETATM   23  C   UNL     1      22.607 -38.981 -49.257  1.00  0.00     0.216 C 
BRANCH  23  24
HETATM   24  O   UNL     1      21.863 -38.110 -50.137  1.00  0.00    -0.287 OA
BRANCH  24  25
HETATM   25  P   UNL     1      20.336 -37.729 -49.837  1.00  0.00     0.418 P 
HETATM   26  O   UNL     1      20.230 -36.279 -49.499  1.00  0.00    -0.624 OA
HETATM   27  O   UNL     1      19.488 -38.263 -50.941  1.00  0.00    -0.624 OA
BRANCH  25  28
HETATM   28  O   UNL     1      20.040 -38.586 -48.517  1.00  0.00    -0.173 OA
BRANCH  28  29
HETATM   29  P   UNL     1      18.944 -38.364 -47.355  1.00  0.00     0.431 P 
HETATM   30  O   UNL     1      19.296 -37.053 -46.696  1.00  0.00    -0.616 OA
HETATM   31  O   UNL     1      19.107 -39.545 -46.432  1.00  0.00    -0.616 OA
HETATM   32  O   UNL     1      17.607 -38.342 -48.050  1.00  0.00    -0.616 OA
ENDBRANCH  28  29
ENDBRANCH  25  28
ENDBRANCH  24  25
ENDBRANCH  23  24
ENDBRANCH   1  23
BRANCH   3  33
HETATM   33  O   UNL     1      25.975 -37.749 -48.442  1.00  0.00    -0.390 OA
ATOM     34  HO  UNL     1      25.883 -37.875 -47.505  1.00  0.00     0.210 HD
ENDBRANCH   3  33
TORSDOF 9
ENDMDL
MODEL 3
REMARK VINA RESULT:    -7.320      3.128      5.138
REMARK INTER + INTRA:         -11.589
REMARK INTER:                 -10.363
REMARK INTRA:                  -1.226
REMARK UNBOUND:                -1.059
REMARK  9 active torsions:
REMARK  status: ('A' for Active; 'I' for Inactive)
REMARK    1  A    between atoms: P_1  and  O_8 
REMARK    2  A    between atoms: P_5  and  O_9 
REMARK    3  A    between atoms: P_5  and  O_8 
REMARK    4  A    between atoms: O_9  and  C_10 
REMARK    5  A    between atoms: C_10  and  C_11 
REMARK    6  A    between atoms: C_13  and  O_14 
REMARK    7  A    between atoms: C_16  and  O_17 
REMARK    8  A    between atoms: C_19  and  N_20 
REMARK    9  A    between atoms: C_25  and  N_26 
ROOT
HETATM    1  C   UNL     1      24.803 -37.908 -48.546  1.00  0.00     0.180 C 
HETATM    2  O   UNL     1      24.406 -38.407 -49.849  1.00  0.00    -0.353 OA
HETATM    3  C   UNL     1      25.642 -36.647 -48.811  1.00  0.00     0.182 C 
HETATM    4  C   UNL     1      25.336 -36.332 -50.275  1.00  0.00     0.198 C 
HETATM    5  C   UNL     1      25.125 -37.727 -50.848  1.00  0.00     0.262 C 
ENDROOT
BRANCH   5   6
HETATM    6  N   UNL     1      24.340 -37.701 -52.073  1.00  0.00    -0.297 N 
HETATM    7  C   UNL     1      24.831 -37.673 -53.353  1.00  0.00     0.188 A 
HETATM    8  N   UNL     1      23.896 -37.686 -54.269  1.00  0.00    -0.346 N 
HETATM    9  C   UNL     1      22.711 -37.732 -53.551  1.00  0.00     0.122 A 
ATOM     10  HN  UNL     1      24.014 -37.668 -55.283  1.00  0.00     0.167 HD
HETATM   11  C   UNL     1      21.362 -37.765 -53.953  1.00  0.00     0.131 A 
HETATM   12  C   UNL     1      22.972 -37.745 -52.195  1.00  0.00     0.142 A 
HETATM   13  N   UNL     1      20.423 -37.803 -52.980  1.00  0.00    -0.337 N 
HETATM   14  C   UNL     1      20.825 -37.812 -51.704  1.00  0.00     0.183 A 
ATOM     15  HN  UNL     1      19.430 -37.824 -53.214  1.00  0.00     0.168 HD
HETATM   16  N   UNL     1      22.060 -37.785 -51.211  1.00  0.00    -0.336 N 
ATOM     17  HN  UNL     1      22.285 -37.794 -50.216  1.00  0.00     0.168 HD
BRANCH  11  18
HETATM   18  N   UNL     1      20.968 -37.758 -55.223  1.00  0.00    -0.383 N 
ATOM     19  HN2 UNL     1      21.152 -38.518 -55.878  1.00  0.00     0.157 HD
ATOM     20  HN1 UNL     1      20.455 -36.948 -55.573  1.00  0.00     0.157 HD
ENDBRANCH  11  18
ENDBRANCH   5   6
BRANCH   4  21
HETATM   21  O   UNL     1      26.376 -35.634 -50.925  1.00  0.00    -0.388 OA
ATOM     22  HO  UNL     1      26.773 -34.962 -50.385  1.00  0.00     0.210 HD
ENDBRANCH   4  21
BRANCH   1  23
HETATM   23  C   UNL     1      23.567 -37.723 -47.702  1.00  0.00     0.216 C 
BRANCH  23  24
HETATM   24  O   UNL     1      22.421 -38.081 -48.503  1.00  0.00    -0.287 OA
BRANCH  24  25
HETATM   25  P   UNL     1      21.470 -39.306 -48.097  1.00  0.00     0.418 P 
HETATM   26  O   UNL     1      21.626 -40.419 -49.081  1.00  0.00    -0.624 OA
HETATM   27  O   UNL     1      21.675 -39.606 -46.650  1.00  0.00    -0.624 OA
BRANCH  25  28
HETATM   28  O   UNL     1      20.015 -38.663 -48.276  1.00  0.00    -0.173 OA
BRANCH  28  29
HETATM   29  P   UNL     1      18.835 -38.441 -47.199  1.00  0.00     0.431 P 
HETATM   30  O   UNL     1      18.883 -39.634 -46.278  1.00  0.00    -0.616 OA
HETATM   31  O   UNL     1      17.567 -38.382 -48.014  1.00  0.00    -0.616 OA
HETATM   32  O   UNL     1      19.149 -37.140 -46.507  1.00  0.00    -0.616 OA
ENDBRANCH  28  29
ENDBRANCH  25  28
ENDBRANCH  24  25
ENDBRANCH  23  24
ENDBRANCH   1  23
BRANCH   3  33
HETATM   33  O   UNL     1      27.028 -36.909 -48.644  1.00  0.00    -0.390 OA
ATOM     34  HO  UNL     1      27.556 -36.202 -48.997  1.00  0.00     0.210 HD
ENDBRANCH   3  33
TORSDOF 9
ENDMDL
MODEL 4
REMARK VINA RESULT:    -7.289      5.003      6.850
REMARK INTER + INTRA:         -11.544
REMARK INTER:                 -10.053
REMARK INTRA:                  -1.491
REMARK UNBOUND:                -1.059
REMARK  9 active torsions:
REMARK  status: ('A' for Active; 'I' for Inactive)
REMARK    1  A    between atoms: P_1  and  O_8 
REMARK    2  A    between atoms: P_5  and  O_9 
REMARK    3  A    between atoms: P_5  and  O_8 
REMARK    4  A    between atoms: O_9  and  C_10 
REMARK    5  A    between atoms: C_10  and  C_11 
REMARK    6  A    between atoms: C_13  and  O_14 
REMARK    7  A    between atoms: C_16  and  O_17 
REMARK    8  A    between atoms: C_19  and  N_20 
REMARK    9  A    between atoms: C_25  and  N_26 
ROOT
HETATM    1  C   UNL     1      24.018 -37.120 -49.082  1.00  0.00     0.180 C 
HETATM    2  O   UNL     1      23.972 -38.564 -48.945  1.00  0.00    -0.353 OA
HETATM    3  C   UNL     1      25.390 -36.795 -49.694  1.00  0.00     0.182 C 
HETATM    4  C   UNL     1      25.873 -38.156 -50.198  1.00  0.00     0.198 C 
HETATM    5  C   UNL     1      25.253 -39.096 -49.172  1.00  0.00     0.262 C 
ENDROOT
BRANCH   5   6
HETATM    6  N   UNL     1      25.127 -40.453 -49.682  1.00  0.00    -0.297 N 
HETATM    7  C   UNL     1      25.999 -41.488 -49.462  1.00  0.00     0.188 A 
HETATM    8  N   UNL     1      25.622 -42.612 -50.016  1.00  0.00    -0.346 N 
HETATM    9  C   UNL     1      24.422 -42.304 -50.638  1.00  0.00     0.122 A 
ATOM     10  HN  UNL     1      26.103 -43.512 -49.995  1.00  0.00     0.167 HD
HETATM   11  C   UNL     1      23.524 -43.078 -51.398  1.00  0.00     0.131 A 
HETATM   12  C   UNL     1      24.104 -40.975 -50.436  1.00  0.00     0.142 A 
HETATM   13  N   UNL     1      22.420 -42.460 -51.878  1.00  0.00    -0.337 N 
HETATM   14  C   UNL     1      22.243 -41.163 -51.600  1.00  0.00     0.183 A 
ATOM     15  HN  UNL     1      21.738 -42.971 -52.438  1.00  0.00     0.168 HD
HETATM   16  N   UNL     1      23.016 -40.340 -50.897  1.00  0.00    -0.336 N 
ATOM     17  HN  UNL     1      22.809 -39.355 -50.731  1.00  0.00     0.168 HD
BRANCH  11  18
HETATM   18  N   UNL     1      23.705 -44.367 -51.669  1.00  0.00    -0.383 N 
ATOM     19  HN2 UNL     1      24.088 -45.038 -51.004  1.00  0.00     0.157 HD
ATOM     20  HN1 UNL     1      23.451 -44.714 -52.595  1.00  0.00     0.157 HD
ENDBRANCH  11  18
ENDBRANCH   5   6
BRANCH   4  21
HETATM   21  O   UNL     1      27.279 -38.266 -50.248  1.00  0.00    -0.388 OA
ATOM     22  HO  UNL     1      27.645 -38.737 -49.509  1.00  0.00     0.210 HD
ENDBRANCH   4  21
BRANCH   1  23
HETATM   23  C   UNL     1      22.813 -36.670 -49.868  1.00  0.00     0.216 C 
BRANCH  23  24
HETATM   24  O   UNL     1      21.916 -37.794 -49.994  1.00  0.00    -0.287 OA
BRANCH  24  25
HETATM   25  P   UNL     1      20.329 -37.615 -49.854  1.00  0.00     0.418 P 
HETATM   26  O   UNL     1      20.008 -36.206 -49.479  1.00  0.00    -0.624 OA
HETATM   27  O   UNL     1      19.677 -38.192 -51.065  1.00  0.00    -0.624 OA
BRANCH  25  28
HETATM   28  O   UNL     1      20.003 -38.565 -48.606  1.00  0.00    -0.173 OA
BRANCH  28  29
HETATM   29  P   UNL     1      18.960 -38.368 -47.393  1.00  0.00     0.431 P 
HETATM   30  O   UNL     1      19.321 -37.056 -46.742  1.00  0.00    -0.616 OA
HETATM   31  O   UNL     1      19.186 -39.552 -46.487  1.00  0.00    -0.616 OA
HETATM   32  O   UNL     1      17.591 -38.365 -48.024  1.00  0.00    -0.616 OA
ENDBRANCH  28  29
ENDBRANCH  25  28
ENDBRANCH  24  25
ENDBRANCH  23  24
ENDBRANCH   1  23
BRANCH   3  33
HETATM   33  O   UNL     1      26.284 -36.290 -48.712  1.00  0.00    -0.390 OA
ATOM     34  HO  UNL     1      26.229 -36.792 -47.908  1.00  0.00     0.210 HD
ENDBRANCH   3  33
TORSDOF 9
ENDMDL
MODEL 5
REMARK VINA RESULT:    -7.269      1.369      2.100
REMARK INTER + INTRA:         -11.516
REMARK INTER:                 -10.665
REMARK INTRA:                  -0.850
REMARK UNBOUND:                -1.059
REMARK  9 active torsions:
REMARK  status: ('A' for Active; 'I' for Inactive)
REMARK    1  A    between atoms: P_1  and  O_8 
REMARK    2  A    between atoms: P_5  and  O_9 
REMARK    3  A    between atoms: P_5  and  O_8 
REMARK    4  A    between atoms: O_9  and  C_10 
REMARK    5  A    between atoms: C_10  and  C_11 
REMARK    6  A    between atoms: C_13  and  O_14 
REMARK    7  A    between atoms: C_16  and  O_17 
REMARK    8  A    between atoms: C_19  and  N_20 
REMARK    9  A    between atoms: C_25  and  N_26 
ROOT
HETATM    1  C   UNL     1      21.083 -38.139 -53.820  1.00  0.00     0.180 C 
HETATM    2  O   UNL     1      21.631 -37.001 -54.535  1.00  0.00    -0.353 OA
HETATM    3  C   UNL     1      21.493 -39.384 -54.623  1.00  0.00     0.182 C 
HETATM    4  C   UNL     1      22.576 -38.848 -55.560  1.00  0.00     0.198 C 
HETATM    5  C   UNL     1      22.096 -37.421 -55.793  1.00  0.00     0.262 C 
ENDROOT
BRANCH   5   6
HETATM    6  N   UNL     1      23.175 -36.546 -56.224  1.00  0.00    -0.297 N 
HETATM    7  C   UNL     1      23.255 -35.882 -57.422  1.00  0.00     0.188 A 
HETATM    8  N   UNL     1      24.325 -35.135 -57.532  1.00  0.00    -0.346 N 
HETATM    9  C   UNL     1      24.993 -35.311 -56.330  1.00  0.00     0.122 A 
ATOM     10  HN  UNL     1      24.603 -34.555 -58.324  1.00  0.00     0.167 HD
HETATM   11  C   UNL     1      26.199 -34.783 -55.832  1.00  0.00     0.131 A 
HETATM   12  C   UNL     1      24.292 -36.176 -55.513  1.00  0.00     0.142 A 
HETATM   13  N   UNL     1      26.583 -35.166 -54.593  1.00  0.00    -0.337 N 
HETATM   14  C   UNL     1      25.799 -36.013 -53.915  1.00  0.00     0.183 A 
ATOM     15  HN  UNL     1      27.450 -34.818 -54.185  1.00  0.00     0.168 HD
HETATM   16  N   UNL     1      24.648 -36.570 -54.280  1.00  0.00    -0.336 N 
ATOM     17  HN  UNL     1      24.108 -37.211 -53.701  1.00  0.00     0.168 HD
BRANCH  11  18
HETATM   18  N   UNL     1      26.973 -33.941 -56.510  1.00  0.00    -0.383 N 
ATOM     19  HN2 UNL     1      27.354 -34.139 -57.435  1.00  0.00     0.157 HD
ATOM     20  HN1 UNL     1      27.208 -33.042 -56.088  1.00  0.00     0.157 HD
ENDBRANCH  11  18
ENDBRANCH   5   6
BRANCH   4  21
HETATM   21  O   UNL     1      22.690 -39.581 -56.759  1.00  0.00    -0.388 OA
ATOM     22  HO  UNL     1      22.666 -39.036 -57.537  1.00  0.00     0.210 HD
ENDBRANCH   4  21
BRANCH   1  23
HETATM   23  C   UNL     1      21.554 -38.082 -52.389  1.00  0.00     0.216 C 
BRANCH  23  24
HETATM   24  O   UNL     1      20.411 -37.802 -51.551  1.00  0.00    -0.287 OA
BRANCH  24  25
HETATM   25  P   UNL     1      20.585 -37.426 -50.003  1.00  0.00     0.418 P 
HETATM   26  O   UNL     1      21.838 -38.037 -49.468  1.00  0.00    -0.624 OA
HETATM   27  O   UNL     1      20.393 -35.955 -49.848  1.00  0.00    -0.624 OA
BRANCH  25  28
HETATM   28  O   UNL     1      19.329 -38.169 -49.344  1.00  0.00    -0.173 OA
BRANCH  28  29
HETATM   29  P   UNL     1      18.906 -38.325 -47.796  1.00  0.00     0.431 P 
HETATM   30  O   UNL     1      19.375 -37.067 -47.108  1.00  0.00    -0.616 OA
HETATM   31  O   UNL     1      19.628 -39.558 -47.315  1.00  0.00    -0.616 OA
HETATM   32  O   UNL     1      17.408 -38.484 -47.793  1.00  0.00    -0.616 OA
ENDBRANCH  28  29
ENDBRANCH  25  28
ENDBRANCH  24  25
ENDBRANCH  23  24
ENDBRANCH   1  23
BRANCH   3  33
HETATM   33  O   UNL     1      20.400 -39.890 -55.376  1.00  0.00    -0.390 OA
ATOM     34  HO  UNL     1      20.324 -39.446 -56.212  1.00  0.00     0.210 HD
ENDBRANCH   3  33
TORSDOF 9
ENDMDL
MODEL 6
REMARK VINA RESULT:    -7.236      3.162      5.344
REMARK INTER + INTRA:         -11.467
REMARK INTER:                  -9.735
REMARK INTRA:                  -1.732
REMARK UNBOUND:                -1.059
REMARK  9 active torsions:
REMARK  status: ('A' for Active; 'I' for Inactive)
REMARK    1  A    between atoms: P_1  and  O_8 
REMARK    2  A    between atoms: P_5  and  O_9 
REMARK    3  A    between atoms: P_5  and  O_8 
REMARK    4  A    between atoms: O_9  and  C_10 
REMARK    5  A    between atoms: C_10  and  C_11 
REMARK    6  A    between atoms: C_13  and  O_14 
REMARK    7  A    between atoms: C_16  and  O_17 
REMARK    8  A    between atoms: C_19  and  N_20 
REMARK    9  A    between atoms: C_25  and  N_26 
ROOT
HETATM    1  C   UNL     1      25.830 -38.834 -49.047  1.00  0.00     0.180 C 
HETATM    2  O   UNL     1      25.574 -38.847 -50.476  1.00  0.00    -0.353 OA
HETATM    3  C   UNL     1      25.931 -37.353 -48.648  1.00  0.00     0.182 C 
HETATM    4  C   UNL     1      25.348 -36.628 -49.861  1.00  0.00     0.198 C 
HETATM    5  C   UNL     1      25.764 -37.555 -50.997  1.00  0.00     0.262 C 
ENDROOT
BRANCH   5   6
HETATM    6  N   UNL     1      24.929 -37.383 -52.175  1.00  0.00    -0.297 N 
HETATM    7  C   UNL     1      25.326 -36.875 -53.386  1.00  0.00     0.188 A 
HETATM    8  N   UNL     1      24.373 -36.864 -54.283  1.00  0.00    -0.346 N 
HETATM    9  C   UNL     1      23.276 -37.402 -53.626  1.00  0.00     0.122 A 
ATOM     10  HN  UNL     1      24.425 -36.533 -55.247  1.00  0.00     0.167 HD
HETATM   11  C   UNL     1      21.956 -37.657 -54.043  1.00  0.00     0.131 A 
HETATM   12  C   UNL     1      23.608 -37.730 -52.327  1.00  0.00     0.142 A 
HETATM   13  N   UNL     1      21.110 -38.199 -53.137  1.00  0.00    -0.337 N 
HETATM   14  C   UNL     1      21.574 -38.465 -51.910  1.00  0.00     0.183 A 
ATOM     15  HN  UNL     1      20.141 -38.400 -53.383  1.00  0.00     0.168 HD
HETATM   16  N   UNL     1      22.790 -38.270 -51.410  1.00  0.00    -0.336 N 
ATOM     17  HN  UNL     1      23.066 -38.501 -50.456  1.00  0.00     0.168 HD
BRANCH  11  18
HETATM   18  N   UNL     1      21.501 -37.392 -55.264  1.00  0.00    -0.383 N 
ATOM     19  HN2 UNL     1      21.013 -38.072 -55.848  1.00  0.00     0.157 HD
ATOM     20  HN1 UNL     1      21.647 -36.459 -55.650  1.00  0.00     0.157 HD
ENDBRANCH  11  18
ENDBRANCH   5   6
BRANCH   4  21
HETATM   21  O   UNL     1      25.850 -35.320 -50.024  1.00  0.00    -0.388 OA
ATOM     22  HO  UNL     1      25.540 -34.714 -49.362  1.00  0.00     0.210 HD
ENDBRANCH   4  21
BRANCH   1  23
HETATM   23  C   UNL     1      24.760 -39.641 -48.357  1.00  0.00     0.216 C 
BRANCH  23  24
HETATM   24  O   UNL     1      23.731 -38.731 -47.911  1.00  0.00    -0.287 OA
BRANCH  24  25
HETATM   25  P   UNL     1      22.182 -39.140 -47.954  1.00  0.00     0.418 P 
HETATM   26  O   UNL     1      21.970 -40.230 -48.952  1.00  0.00    -0.624 OA
HETATM   27  O   UNL     1      21.710 -39.359 -46.555  1.00  0.00    -0.624 OA
BRANCH  25  28
HETATM   28  O   UNL     1      21.505 -37.798 -48.508  1.00  0.00    -0.173 OA
BRANCH  28  29
HETATM   29  P   UNL     1      19.950 -37.405 -48.665  1.00  0.00     0.431 P 
HETATM   30  O   UNL     1      19.284 -38.591 -49.317  1.00  0.00    -0.616 OA
HETATM   31  O   UNL     1      19.943 -36.177 -49.540  1.00  0.00    -0.616 OA
HETATM   32  O   UNL     1      19.451 -37.133 -47.269  1.00  0.00    -0.616 OA
ENDBRANCH  28  29
ENDBRANCH  25  28
ENDBRANCH  24  25
ENDBRANCH  23  24
ENDBRANCH   1  23
BRANCH   3  33
HETATM   33  O   UNL     1      27.283 -36.967 -48.448  1.00  0.00    -0.390 OA
ATOM     34  HO  UNL     1      27.702 -37.511 -47.791  1.00  0.00     0.210 HD
ENDBRANCH   3  33
TORSDOF 9
ENDMDL
MODEL 7
REMARK VINA RESULT:    -7.204      2.595      4.190
REMARK INTER + INTRA:         -11.422
REMARK INTER:                 -10.337
REMARK INTRA:                  -1.085
REMARK UNBOUND:                -1.059
REMARK  9 active torsions:
REMARK  status: ('A' for Active; 'I' for Inactive)
REMARK    1  A    between atoms: P_1  and  O_8 
REMARK    2  A    between atoms: P_5  and  O_9 
REMARK    3  A    between atoms: P_5  and  O_8 
REMARK    4  A    between atoms: O_9  and  C_10 
REMARK    5  A    between atoms: C_10  and  C_11 
REMARK    6  A    between atoms: C_13  and  O_14 
REMARK    7  A    between atoms: C_16  and  O_17 
REMARK    8  A    between atoms: C_19  and  N_20 
REMARK    9  A    between atoms: C_25  and  N_26 
ROOT
HETATM    1  C   UNL     1      23.874 -39.240 -49.664  1.00  0.00     0.180 C 
HETATM    2  O   UNL     1      24.133 -39.092 -51.084  1.00  0.00    -0.353 OA
HETATM    3  C   UNL     1      24.347 -37.933 -49.008  1.00  0.00     0.182 C 
HETATM    4  C   UNL     1      24.509 -36.988 -50.199  1.00  0.00     0.198 C 
HETATM    5  C   UNL     1      24.931 -37.955 -51.298  1.00  0.00     0.262 C 
ENDROOT
BRANCH   5   6
HETATM    6  N   UNL     1      24.665 -37.422 -52.625  1.00  0.00    -0.297 N 
HETATM    7  C   UNL     1      23.574 -37.700 -53.409  1.00  0.00     0.188 A 
HETATM    8  N   UNL     1      23.575 -37.055 -54.548  1.00  0.00    -0.346 N 
HETATM    9  C   UNL     1      24.737 -36.299 -54.515  1.00  0.00     0.122 A 
ATOM     10  HN  UNL     1      22.878 -37.099 -55.292  1.00  0.00     0.167 HD
HETATM   11  C   UNL     1      25.307 -35.399 -55.436  1.00  0.00     0.131 A 
HETATM   12  C   UNL     1      25.416 -36.514 -53.332  1.00  0.00     0.142 A 
HETATM   13  N   UNL     1      26.479 -34.817 -55.094  1.00  0.00    -0.337 N 
HETATM   14  C   UNL     1      27.023 -35.122 -53.910  1.00  0.00     0.183 A 
ATOM     15  HN  UNL     1      26.938 -34.160 -55.725  1.00  0.00     0.168 HD
HETATM   16  N   UNL     1      26.578 -35.948 -52.968  1.00  0.00    -0.336 N 
ATOM     17  HN  UNL     1      27.055 -36.128 -52.086  1.00  0.00     0.168 HD
BRANCH  11  18
HETATM   18  N   UNL     1      24.761 -35.098 -56.610  1.00  0.00    -0.383 N 
ATOM     19  HN2 UNL     1      24.117 -34.321 -56.754  1.00  0.00     0.157 HD
ATOM     20  HN1 UNL     1      24.991 -35.674 -57.420  1.00  0.00     0.157 HD
ENDBRANCH  11  18
ENDBRANCH   5   6
BRANCH   4  21
HETATM   21  O   UNL     1      25.462 -35.972 -49.980  1.00  0.00    -0.388 OA
ATOM     22  HO  UNL     1      25.744 -35.543 -50.779  1.00  0.00     0.210 HD
ENDBRANCH   4  21
BRANCH   1  23
HETATM   23  C   UNL     1      22.421 -39.596 -49.472  1.00  0.00     0.216 C 
BRANCH  23  24
HETATM   24  O   UNL     1      21.725 -38.412 -49.025  1.00  0.00    -0.287 OA
BRANCH  24  25
HETATM   25  P   UNL     1      20.564 -37.746 -49.905  1.00  0.00     0.418 P 
HETATM   26  O   UNL     1      20.561 -36.266 -49.707  1.00  0.00    -0.624 OA
HETATM   27  O   UNL     1      20.660 -38.275 -51.297  1.00  0.00    -0.624 OA
BRANCH  25  28
HETATM   28  O   UNL     1      19.249 -38.357 -49.225  1.00  0.00    -0.173 OA
BRANCH  28  29
HETATM   29  P   UNL     1      18.740 -38.290 -47.697  1.00  0.00     0.431 P 
HETATM   30  O   UNL     1      19.233 -39.553 -47.037  1.00  0.00    -0.616 OA
HETATM   31  O   UNL     1      17.235 -38.227 -47.788  1.00  0.00    -0.616 OA
HETATM   32  O   UNL     1      19.345 -37.038 -47.117  1.00  0.00    -0.616 OA
ENDBRANCH  28  29
ENDBRANCH  25  28
ENDBRANCH  24  25
ENDBRANCH  23  24
ENDBRANCH   1  23
BRANCH   3  33
HETATM   33  O   UNL     1      25.594 -38.112 -48.351  1.00  0.00    -0.390 OA
ATOM     34  HO  UNL     1      25.528 -37.902 -47.426  1.00  0.00     0.210 HD
ENDBRANCH   3  33
TORSDOF 9
ENDMDL
MODEL 8
REMARK VINA RESULT:    -7.195      1.596      2.362
REMARK INTER + INTRA:         -11.408
REMARK INTER:                  -9.963
REMARK INTRA:                  -1.445
REMARK UNBOUND:                -1.059
REMARK  9 active torsions:
REMARK  status: ('A' for Active; 'I' for Inactive)
REMARK    1  A    between atoms: P_1  and  O_8 
REMARK    2  A    between atoms: P_5  and  O_9 
REMARK    3  A    between atoms: P_5  and  O_8 
REMARK    4  A    between atoms: O_9  and  C_10 
REMARK    5  A    between atoms: C_10  and  C_11 
REMARK    6  A    between atoms: C_13  and  O_14 
REMARK    7  A    between atoms: C_16  and  O_17 
REMARK    8  A    between atoms: C_19  and  N_20 
REMARK    9  A    between atoms: C_25  and  N_26 
ROOT
HETATM    1  C   UNL     1      20.484 -39.437 -52.010  1.00  0.00     0.180 C 
HETATM    2  O   UNL     1      21.064 -38.243 -52.598  1.00  0.00    -0.353 OA
HETATM    3  C   UNL     1      20.562 -40.524 -53.094  1.00  0.00     0.182 C 
HETATM    4  C   UNL     1      21.537 -39.929 -54.110  1.00  0.00     0.198 C 
HETATM    5  C   UNL     1      21.240 -38.441 -53.979  1.00  0.00     0.262 C 
ENDROOT
BRANCH   5   6
HETATM    6  N   UNL     1      22.347 -37.620 -54.445  1.00  0.00    -0.297 N 
HETATM    7  C   UNL     1      22.388 -36.896 -55.609  1.00  0.00     0.188 A 
HETATM    8  N   UNL     1      23.499 -36.221 -55.763  1.00  0.00    -0.346 N 
HETATM    9  C   UNL     1      24.239 -36.513 -54.627  1.00  0.00     0.122 A 
ATOM     10  HN  UNL     1      23.761 -35.617 -56.542  1.00  0.00     0.167 HD
HETATM   11  C   UNL     1      25.515 -36.102 -54.197  1.00  0.00     0.131 A 
HETATM   12  C   UNL     1      23.537 -37.372 -53.805  1.00  0.00     0.142 A 
HETATM   13  N   UNL     1      25.960 -36.583 -53.013  1.00  0.00    -0.337 N 
HETATM   14  C   UNL     1      25.166 -37.410 -52.322  1.00  0.00     0.183 A 
ATOM     15  HN  UNL     1      26.878 -36.321 -52.656  1.00  0.00     0.168 HD
HETATM   16  N   UNL     1      23.953 -37.862 -52.626  1.00  0.00    -0.336 N 
ATOM     17  HN  UNL     1      23.410 -38.496 -52.041  1.00  0.00     0.168 HD
BRANCH  11  18
HETATM   18  N   UNL     1      26.298 -35.278 -54.888  1.00  0.00    -0.383 N 
ATOM     19  HN2 UNL     1      26.250 -35.167 -55.901  1.00  0.00     0.157 HD
ATOM     20  HN1 UNL     1      26.991 -34.723 -54.385  1.00  0.00     0.157 HD
ENDBRANCH  11  18
ENDBRANCH   5   6
BRANCH   4  21
HETATM   21  O   UNL     1      21.334 -40.404 -55.423  1.00  0.00    -0.388 OA
ATOM     22  HO  UNL     1      22.135 -40.465 -55.929  1.00  0.00     0.210 HD
ENDBRANCH   4  21
BRANCH   1  23
HETATM   23  C   UNL     1      21.196 -39.732 -50.715  1.00  0.00     0.216 C 
BRANCH  23  24
HETATM   24  O   UNL     1      21.867 -38.527 -50.287  1.00  0.00    -0.287 OA
BRANCH  24  25
HETATM   25  P   UNL     1      21.305 -37.647 -49.072  1.00  0.00     0.418 P 
HETATM   26  O   UNL     1      22.159 -37.843 -47.863  1.00  0.00    -0.624 OA
HETATM   27  O   UNL     1      21.076 -36.256 -49.559  1.00  0.00    -0.624 OA
BRANCH  25  28
HETATM   28  O   UNL     1      19.879 -38.328 -48.809  1.00  0.00    -0.173 OA
BRANCH  28  29
HETATM   29  P   UNL     1      18.944 -38.312 -47.496  1.00  0.00     0.431 P 
HETATM   30  O   UNL     1      17.522 -38.344 -47.996  1.00  0.00    -0.616 OA
HETATM   31  O   UNL     1      19.286 -37.025 -46.787  1.00  0.00    -0.616 OA
HETATM   32  O   UNL     1      19.326 -39.536 -46.704  1.00  0.00    -0.616 OA
ENDBRANCH  28  29
ENDBRANCH  25  28
ENDBRANCH  24  25
ENDBRANCH  23  24
ENDBRANCH   1  23
BRANCH   3  33
HETATM   33  O   UNL     1      19.294 -40.739 -53.697  1.00  0.00    -0.390 OA
ATOM     34  HO  UNL     1      19.073 -41.663 -53.712  1.00  0.00     0.210 HD
ENDBRANCH   3  33
TORSDOF 9
ENDMDL
MODEL 9
REMARK VINA RESULT:    -7.189      1.064      2.059
REMARK INTER + INTRA:         -11.400
REMARK INTER:                 -10.771
REMARK INTRA:                  -0.630
REMARK UNBOUND:                -1.059
REMARK  9 active torsions:
REMARK  status: ('A' for Active; 'I' for Inactive)
REMARK    1  A    between atoms: P_1  and  O_8 
REMARK    2  A    between atoms: P_5  and  O_9 
REMARK    3  A    between atoms: P_5  and  O_8 
REMARK    4  A    between atoms: O_9  and  C_10 
REMARK    5  A    between atoms: C_10  and  C_11 
REMARK    6  A    between atoms: C_13  and  O_14 
REMARK    7  A    between atoms: C_16  and  O_17 
REMARK    8  A    between atoms: C_19  and  N_20 
REMARK    9  A    between atoms: C_25  and  N_26 
ROOT
HETATM    1  C   UNL     1      21.305 -37.886 -53.382  1.00  0.00     0.180 C 
HETATM    2  O   UNL     1      21.820 -36.754 -54.130  1.00  0.00    -0.353 OA
HETATM    3  C   UNL     1      21.561 -39.124 -54.256  1.00  0.00     0.182 C 
HETATM    4  C   UNL     1      22.554 -38.610 -55.300  1.00  0.00     0.198 C 
HETATM    5  C   UNL     1      22.117 -37.157 -55.443  1.00  0.00     0.262 C 
ENDROOT
BRANCH   5   6
HETATM    6  N   UNL     1      23.180 -36.319 -55.976  1.00  0.00    -0.297 N 
HETATM    7  C   UNL     1      24.284 -35.875 -55.293  1.00  0.00     0.188 A 
HETATM    8  N   UNL     1      25.097 -35.160 -56.029  1.00  0.00    -0.346 N 
HETATM    9  C   UNL     1      24.496 -35.132 -57.279  1.00  0.00     0.122 A 
ATOM     10  HN  UNL     1      25.975 -34.723 -55.747  1.00  0.00     0.167 HD
HETATM   11  C   UNL     1      24.870 -34.530 -58.495  1.00  0.00     0.131 A 
HETATM   12  C   UNL     1      23.314 -35.846 -57.259  1.00  0.00     0.142 A 
HETATM   13  N   UNL     1      24.041 -34.693 -59.552  1.00  0.00    -0.337 N 
HETATM   14  C   UNL     1      22.926 -35.414 -59.384  1.00  0.00     0.183 A 
ATOM     15  HN  UNL     1      24.261 -34.275 -60.456  1.00  0.00     0.168 HD
HETATM   16  N   UNL     1      22.476 -36.025 -58.292  1.00  0.00    -0.336 N 
ATOM     17  HN  UNL     1      21.609 -36.560 -58.245  1.00  0.00     0.168 HD
BRANCH  11  18
HETATM   18  N   UNL     1      25.979 -33.816 -58.657  1.00  0.00    -0.383 N 
ATOM     19  HN2 UNL     1      26.765 -33.833 -58.006  1.00  0.00     0.157 HD
ATOM     20  HN1 UNL     1      26.059 -33.210 -59.474  1.00  0.00     0.157 HD
ENDBRANCH  11  18
ENDBRANCH   5   6
BRANCH   4  21
HETATM   21  O   UNL     1      22.494 -39.313 -56.521  1.00  0.00    -0.388 OA
ATOM     22  HO  UNL     1      23.312 -39.298 -57.004  1.00  0.00     0.210 HD
ENDBRANCH   4  21
BRANCH   1  23
HETATM   23  C   UNL     1      21.940 -37.891 -52.015  1.00  0.00     0.216 C 
BRANCH  23  24
HETATM   24  O   UNL     1      20.951 -38.339 -51.063  1.00  0.00    -0.287 OA
BRANCH  24  25
HETATM   25  P   UNL     1      20.802 -37.645 -49.626  1.00  0.00     0.418 P 
HETATM   26  O   UNL     1      22.072 -37.793 -48.855  1.00  0.00    -0.624 OA
HETATM   27  O   UNL     1      20.245 -36.274 -49.817  1.00  0.00    -0.624 OA
BRANCH  25  28
HETATM   28  O   UNL     1      19.675 -38.553 -48.940  1.00  0.00    -0.173 OA
BRANCH  28  29
HETATM   29  P   UNL     1      18.898 -38.367 -47.540  1.00  0.00     0.431 P 
HETATM   30  O   UNL     1      19.272 -39.558 -46.694  1.00  0.00    -0.616 OA
HETATM   31  O   UNL     1      17.435 -38.345 -47.905  1.00  0.00    -0.616 OA
HETATM   32  O   UNL     1      19.381 -37.057 -46.973  1.00  0.00    -0.616 OA
ENDBRANCH  28  29
ENDBRANCH  25  28
ENDBRANCH  24  25
ENDBRANCH  23  24
ENDBRANCH   1  23
BRANCH   3  33
HETATM   33  O   UNL     1      20.366 -39.561 -54.889  1.00  0.00    -0.390 OA
ATOM     34  HO  UNL     1      19.631 -39.008 -54.652  1.00  0.00     0.210 HD
ENDBRANCH   3  33
TORSDOF 9
ENDMDL
MODEL 10
REMARK VINA RESULT:    -7.180      2.438      3.182
REMARK INTER + INTRA:         -11.387
REMARK INTER:                  -9.956
REMARK INTRA:                  -1.431
REMARK UNBOUND:                -1.059
REMARK  9 active torsions:
REMARK  status: ('A' for Active; 'I' for Inactive)
REMARK    1  A    between atoms: P_1  and  O_8 
REMARK    2  A    between atoms: P_5  and  O_9 
REMARK    3  A    between atoms: P_5  and  O_8 
REMARK    4  A    between atoms: O_9  and  C_10 
REMARK    5  A    between atoms: C_10  and  C_11 
REMARK    6  A    between atoms: C_13  and  O_14 
REMARK    7  A    between atoms: C_16  and  O_17 
REMARK    8  A    between atoms: C_19  and  N_20 
REMARK    9  A    between atoms: C_25  and  N_26 
ROOT
HETATM    1  C   UNL     1      19.973 -38.811 -53.377  1.00  0.00     0.180 C 
HETATM    2  O   UNL     1      21.165 -38.181 -53.914  1.00  0.00    -0.353 OA
HETATM    3  C   UNL     1      20.305 -40.306 -53.247  1.00  0.00     0.182 C 
HETATM    4  C   UNL     1      21.827 -40.335 -53.392  1.00  0.00     0.198 C 
HETATM    5  C   UNL     1      22.063 -39.172 -54.347  1.00  0.00     0.262 C 
ENDROOT
BRANCH   5   6
HETATM    6  N   UNL     1      23.422 -38.661 -54.260  1.00  0.00    -0.297 N 
HETATM    7  C   UNL     1      24.327 -38.579 -55.288  1.00  0.00     0.188 A 
HETATM    8  N   UNL     1      25.469 -38.047 -54.933  1.00  0.00    -0.346 N 
HETATM    9  C   UNL     1      25.310 -37.754 -53.587  1.00  0.00     0.122 A 
ATOM     10  HN  UNL     1      26.291 -37.885 -55.516  1.00  0.00     0.167 HD
HETATM   11  C   UNL     1      26.171 -37.173 -52.637  1.00  0.00     0.131 A 
HETATM   12  C   UNL     1      24.049 -38.125 -53.161  1.00  0.00     0.142 A 
HETATM   13  N   UNL     1      25.700 -37.027 -51.377  1.00  0.00    -0.337 N 
HETATM   14  C   UNL     1      24.454 -37.433 -51.110  1.00  0.00     0.183 A 
ATOM     15  HN  UNL     1      26.283 -36.616 -50.648  1.00  0.00     0.168 HD
HETATM   16  N   UNL     1      23.558 -37.988 -51.920  1.00  0.00    -0.336 N 
ATOM     17  HN  UNL     1      22.621 -38.272 -51.636  1.00  0.00     0.168 HD
BRANCH  11  18
HETATM   18  N   UNL     1      27.408 -36.770 -52.909  1.00  0.00    -0.383 N 
ATOM     19  HN2 UNL     1      28.131 -36.639 -52.201  1.00  0.00     0.157 HD
ATOM     20  HN1 UNL     1      27.659 -36.575 -53.879  1.00  0.00     0.157 HD
ENDBRANCH  11  18
ENDBRANCH   5   6
BRANCH   4  21
HETATM   21  O   UNL     1      22.317 -41.556 -53.900  1.00  0.00    -0.388 OA
ATOM     22  HO  UNL     1      21.721 -41.977 -54.508  1.00  0.00     0.210 HD
ENDBRANCH   4  21
BRANCH   1  23
HETATM   23  C   UNL     1      19.582 -38.101 -52.106  1.00  0.00     0.216 C 
BRANCH  23  24
HETATM   24  O   UNL     1      20.745 -38.036 -51.253  1.00  0.00    -0.287 OA
BRANCH  24  25
HETATM   25  P   UNL     1      20.657 -37.442 -49.767  1.00  0.00     0.418 P 
HETATM   26  O   UNL     1      21.860 -37.851 -48.983  1.00  0.00    -0.624 OA
HETATM   27  O   UNL     1      20.329 -35.990 -49.855  1.00  0.00    -0.624 OA
BRANCH  25  28
HETATM   28  O   UNL     1      19.379 -38.211 -49.184  1.00  0.00    -0.173 OA
BRANCH  28  29
HETATM   29  P   UNL     1      18.853 -38.355 -47.667  1.00  0.00     0.431 P 
HETATM   30  O   UNL     1      19.506 -39.599 -47.116  1.00  0.00    -0.616 OA
HETATM   31  O   UNL     1      17.354 -38.484 -47.782  1.00  0.00    -0.616 OA
HETATM   32  O   UNL     1      19.281 -37.094 -46.962  1.00  0.00    -0.616 OA
ENDBRANCH  28  29
ENDBRANCH  25  28
ENDBRANCH  24  25
ENDBRANCH  23  24
ENDBRANCH   1  23
BRANCH   3  33
HETATM   33  O   UNL     1      19.699 -41.059 -54.289  1.00  0.00    -0.390 OA
ATOM     34  HO  UNL     1      18.850 -40.701 -54.521  1.00  0.00     0.210 HD
ENDBRANCH   3  33
TORSDOF 9
ENDMDL
MODEL 11
REMARK VINA RESULT:    -7.170      2.731      4.409
REMARK INTER + INTRA:         -11.372
REMARK INTER:                 -10.875
REMARK INTRA:                  -0.498
REMARK UNBOUND:                -1.059
REMARK  9 active torsions:
REMARK  status: ('A' for Active; 'I' for Inactive)
REMARK    1  A    between atoms: P_1  and  O_8 
REMARK    2  A    between atoms: P_5  and  O_9 
REMARK    3  A    between atoms: P_5  and  O_8 
REMARK    4  A    between atoms: O_9  and  C_10 
REMARK    5  A    between atoms: C_10  and  C_11 
REMARK    6  A    between atoms: C_13  and  O_14 
REMARK    7  A    between atoms: C_16  and  O_17 
REMARK    8  A    between atoms: C_19  and  N_20 
REMARK    9  A    between atoms: C_25  and  N_26 
ROOT
HETATM    1  C   UNL     1      23.976 -38.060 -50.322  1.00  0.00     0.180 C 
HETATM    2  O   UNL     1      24.259 -37.594 -51.667  1.00  0.00    -0.353 OA
HETATM    3  C   UNL     1      25.336 -38.424 -49.704  1.00  0.00     0.182 C 
HETATM    4  C   UNL     1      26.335 -37.774 -50.661  1.00  0.00     0.198 C 
HETATM    5  C   UNL     1      25.597 -37.883 -51.989  1.00  0.00     0.262 C 
ENDROOT
BRANCH   5   6
HETATM    6  N   UNL     1      26.078 -36.913 -52.962  1.00  0.00    -0.297 N 
HETATM    7  C   UNL     1      27.323 -36.338 -52.988  1.00  0.00     0.188 A 
HETATM    8  N   UNL     1      27.496 -35.521 -53.996  1.00  0.00    -0.346 N 
HETATM    9  C   UNL     1      26.292 -35.561 -54.683  1.00  0.00     0.122 A 
ATOM     10  HN  UNL     1      28.329 -34.978 -54.225  1.00  0.00     0.167 HD
HETATM   11  C   UNL     1      25.846 -34.909 -55.849  1.00  0.00     0.131 A 
HETATM   12  C   UNL     1      25.411 -36.420 -54.057  1.00  0.00     0.142 A 
HETATM   13  N   UNL     1      24.584 -35.169 -56.264  1.00  0.00    -0.337 N 
HETATM   14  C   UNL     1      23.843 -36.027 -55.553  1.00  0.00     0.183 A 
ATOM     15  HN  UNL     1      24.208 -34.721 -57.099  1.00  0.00     0.168 HD
HETATM   16  N   UNL     1      24.157 -36.697 -54.448  1.00  0.00    -0.336 N 
ATOM     17  HN  UNL     1      23.529 -37.336 -53.963  1.00  0.00     0.168 HD
BRANCH  11  18
HETATM   18  N   UNL     1      26.589 -34.059 -56.551  1.00  0.00    -0.383 N 
ATOM     19  HN2 UNL     1      27.065 -34.306 -57.419  1.00  0.00     0.157 HD
ATOM     20  HN1 UNL     1      26.697 -33.104 -56.210  1.00  0.00     0.157 HD
ENDBRANCH  11  18
ENDBRANCH   5   6
BRANCH   4  21
HETATM   21  O   UNL     1      27.587 -38.423 -50.686  1.00  0.00    -0.388 OA
ATOM     22  HO  UNL     1      27.843 -38.713 -51.554  1.00  0.00     0.210 HD
ENDBRANCH   4  21
BRANCH   1  23
HETATM   23  C   UNL     1      23.177 -37.002 -49.603  1.00  0.00     0.216 C 
BRANCH  23  24
HETATM   24  O   UNL     1      21.958 -37.610 -49.125  1.00  0.00    -0.287 OA
BRANCH  24  25
HETATM   25  P   UNL     1      20.566 -37.401 -49.892  1.00  0.00     0.418 P 
HETATM   26  O   UNL     1      20.063 -36.014 -49.665  1.00  0.00    -0.624 OA
HETATM   27  O   UNL     1      20.723 -37.877 -51.298  1.00  0.00    -0.624 OA
BRANCH  25  28
HETATM   28  O   UNL     1      19.610 -38.427 -49.119  1.00  0.00    -0.173 OA
BRANCH  28  29
HETATM   29  P   UNL     1      18.926 -38.316 -47.663  1.00  0.00     0.431 P 
HETATM   30  O   UNL     1      19.414 -39.511 -46.882  1.00  0.00    -0.616 OA
HETATM   31  O   UNL     1      17.441 -38.355 -47.924  1.00  0.00    -0.616 OA
HETATM   32  O   UNL     1      19.387 -37.001 -47.091  1.00  0.00    -0.616 OA
ENDBRANCH  28  29
ENDBRANCH  25  28
ENDBRANCH  24  25
ENDBRANCH  23  24
ENDBRANCH   1  23
BRANCH   3  33
HETATM   33  O   UNL     1      25.526 -39.832 -49.678  1.00  0.00    -0.390 OA
ATOM     34  HO  UNL     1      26.446 -40.055 -49.757  1.00  0.00     0.210 HD
ENDBRANCH   3  33
TORSDOF 9
ENDMDL
MODEL 12
REMARK VINA RESULT:    -6.950      3.018      4.899
REMARK INTER + INTRA:         -11.057
REMARK INTER:                 -10.411
REMARK INTRA:                  -0.645
REMARK UNBOUND:                -1.059
REMARK  9 active torsions:
REMARK  status: ('A' for Active; 'I' for Inactive)
REMARK    1  A    between atoms: P_1  and  O_8 
REMARK    2  A    between atoms: P_5  and  O_9 
REMARK    3  A    between atoms: P_5  and  O_8 
REMARK    4  A    between atoms: O_9  and  C_10 
REMARK    5  A    between atoms: C_10  and  C_11 
REMARK    6  A    between atoms: C_13  and  O_14 
REMARK    7  A    between atoms: C_16  and  O_17 
REMARK    8  A    between atoms: C_19  and  N_20 
REMARK    9  A    between atoms: C_25  and  N_26 
ROOT
HETATM    1  C   UNL     1      22.323 -39.368 -48.640  1.00  0.00     0.180 C 
HETATM    2  O   UNL     1      22.768 -39.601 -50.002  1.00  0.00    -0.353 OA
HETATM    3  C   UNL     1      22.490 -37.860 -48.391  1.00  0.00     0.182 C 
HETATM    4  C   UNL     1      22.684 -37.297 -49.799  1.00  0.00     0.198 C 
HETATM    5  C   UNL     1      23.408 -38.447 -50.488  1.00  0.00     0.262 C 
ENDROOT
BRANCH   5   6
HETATM    6  N   UNL     1      23.268 -38.392 -51.935  1.00  0.00    -0.297 N 
HETATM    7  C   UNL     1      24.164 -37.845 -52.818  1.00  0.00     0.188 A 
HETATM    8  N   UNL     1      23.798 -37.962 -54.069  1.00  0.00    -0.346 N 
HETATM    9  C   UNL     1      22.585 -38.633 -54.012  1.00  0.00     0.122 A 
ATOM     10  HN  UNL     1      24.293 -37.634 -54.899  1.00  0.00     0.167 HD
HETATM   11  C   UNL     1      21.691 -39.057 -55.013  1.00  0.00     0.131 A 
HETATM   12  C   UNL     1      22.250 -38.907 -52.701  1.00  0.00     0.142 A 
HETATM   13  N   UNL     1      20.567 -39.697 -54.614  1.00  0.00    -0.337 N 
HETATM   14  C   UNL     1      20.375 -39.893 -53.304  1.00  0.00     0.183 A 
ATOM     15  HN  UNL     1      19.883 -40.023 -55.296  1.00  0.00     0.168 HD
HETATM   16  N   UNL     1      21.145 -39.541 -52.279  1.00  0.00    -0.336 N 
ATOM     17  HN  UNL     1      20.925 -39.729 -51.301  1.00  0.00     0.168 HD
BRANCH  11  18
HETATM   18  N   UNL     1      21.888 -38.861 -56.313  1.00  0.00    -0.383 N 
ATOM     19  HN2 UNL     1      22.513 -38.149 -56.690  1.00  0.00     0.157 HD
ATOM     20  HN1 UNL     1      21.389 -39.450 -56.980  1.00  0.00     0.157 HD
ENDBRANCH  11  18
ENDBRANCH   5   6
BRANCH   4  21
HETATM   21  O   UNL     1      23.429 -36.100 -49.824  1.00  0.00    -0.388 OA
ATOM     22  HO  UNL     1      22.997 -35.398 -50.295  1.00  0.00     0.210 HD
ENDBRANCH   4  21
BRANCH   1  23
HETATM   23  C   UNL     1      20.929 -39.921 -48.486  1.00  0.00     0.216 C 
BRANCH  23  24
HETATM   24  O   UNL     1      19.994 -38.837 -48.677  1.00  0.00    -0.287 OA
BRANCH  24  25
HETATM   25  P   UNL     1      19.008 -38.371 -47.502  1.00  0.00     0.418 P 
HETATM   26  O   UNL     1      19.475 -37.074 -46.930  1.00  0.00    -0.624 OA
HETATM   27  O   UNL     1      17.603 -38.462 -47.997  1.00  0.00    -0.624 OA
BRANCH  25  28
HETATM   28  O   UNL     1      19.232 -39.523 -46.413  1.00  0.00    -0.173 OA
BRANCH  28  29
HETATM   29  P   UNL     1      19.807 -39.435 -44.908  1.00  0.00     0.431 P 
HETATM   30  O   UNL     1      21.286 -39.708 -45.011  1.00  0.00    -0.616 OA
HETATM   31  O   UNL     1      19.066 -40.504 -44.144  1.00  0.00    -0.616 OA
HETATM   32  O   UNL     1      19.488 -38.043 -44.427  1.00  0.00    -0.616 OA
ENDBRANCH  28  29
ENDBRANCH  25  28
ENDBRANCH  24  25
ENDBRANCH  23  24
ENDBRANCH   1  23
BRANCH   3  33
HETATM   33  O   UNL     1      23.636 -37.596 -47.594  1.00  0.00    -0.390 OA
ATOM     34  HO  UNL     1      24.320 -38.235 -47.755  1.00  0.00     0.210 HD
ENDBRANCH   3  33
TORSDOF 9
ENDMDL
MODEL 13
REMARK VINA RESULT:    -6.864      2.296      3.510
REMARK INTER + INTRA:         -10.933
REMARK INTER:                 -10.193
REMARK INTRA:                  -0.740
REMARK UNBOUND:                -1.059
REMARK  9 active torsions:
REMARK  status: ('A' for Active; 'I' for Inactive)
REMARK    1  A    between atoms: P_1  and  O_8 
REMARK    2  A    between atoms: P_5  and  O_9 
REMARK    3  A    between atoms: P_5  and  O_8 
REMARK    4  A    between atoms: O_9  and  C_10 
REMARK    5  A    between atoms: C_10  and  C_11 
REMARK    6  A    between atoms: C_13  and  O_14 
REMARK    7  A    between atoms: C_16  and  O_17 
REMARK    8  A    between atoms: C_19  and  N_20 
REMARK    9  A    between atoms: C_25  and  N_26 
ROOT
HETATM    1  C   UNL     1      22.054 -38.130 -53.093  1.00  0.00     0.180 C 
HETATM    2  O   UNL     1      22.990 -37.021 -53.134  1.00  0.00    -0.353 OA
HETATM    3  C   UNL     1      22.459 -39.071 -54.239  1.00  0.00     0.182 C 
HETATM    4  C   UNL     1      23.855 -38.574 -54.615  1.00  0.00     0.198 C 
HETATM    5  C   UNL     1      23.734 -37.083 -54.325  1.00  0.00     0.262 C 
ENDROOT
BRANCH   5   6
HETATM    6  N   UNL     1      25.032 -36.461 -54.114  1.00  0.00    -0.297 N 
HETATM    7  C   UNL     1      25.841 -36.621 -53.017  1.00  0.00     0.188 A 
HETATM    8  N   UNL     1      26.972 -35.968 -53.106  1.00  0.00    -0.346 N 
HETATM    9  C   UNL     1      26.910 -35.338 -54.340  1.00  0.00     0.122 A 
ATOM     10  HN  UNL     1      27.728 -35.929 -52.421  1.00  0.00     0.167 HD
HETATM   11  C   UNL     1      27.810 -34.493 -55.017  1.00  0.00     0.131 A 
HETATM   12  C   UNL     1      25.720 -35.639 -54.973  1.00  0.00     0.142 A 
HETATM   13  N   UNL     1      27.438 -34.034 -56.235  1.00  0.00    -0.337 N 
HETATM   14  C   UNL     1      26.251 -34.411 -56.723  1.00  0.00     0.183 A 
ATOM     15  HN  UNL     1      28.049 -33.415 -56.767  1.00  0.00     0.168 HD
HETATM   16  N   UNL     1      25.329 -35.200 -56.179  1.00  0.00    -0.336 N 
ATOM     17  HN  UNL     1      24.442 -35.440 -56.621  1.00  0.00     0.168 HD
BRANCH  11  18
HETATM   18  N   UNL     1      28.989 -34.123 -54.527  1.00  0.00    -0.383 N 
ATOM     19  HN2 UNL     1      29.100 -33.506 -53.722  1.00  0.00     0.157 HD
ATOM     20  HN1 UNL     1      29.837 -34.469 -54.976  1.00  0.00     0.157 HD
ENDBRANCH  11  18
ENDBRANCH   5   6
BRANCH   4  21
HETATM   21  O   UNL     1      24.197 -38.834 -55.959  1.00  0.00    -0.388 OA
ATOM     22  HO  UNL     1      25.084 -39.157 -56.065  1.00  0.00     0.210 HD
ENDBRANCH   4  21
BRANCH   1  23
HETATM   23  C   UNL     1      22.067 -38.721 -51.706  1.00  0.00     0.216 C 
BRANCH  23  24
HETATM   24  O   UNL     1      20.783 -38.463 -51.097  1.00  0.00    -0.287 OA
BRANCH  24  25
HETATM   25  P   UNL     1      20.668 -37.725 -49.679  1.00  0.00     0.418 P 
HETATM   26  O   UNL     1      21.831 -38.092 -48.818  1.00  0.00    -0.624 OA
HETATM   27  O   UNL     1      20.391 -36.279 -49.917  1.00  0.00    -0.624 OA
BRANCH  25  28
HETATM   28  O   UNL     1      19.347 -38.395 -49.070  1.00  0.00    -0.173 OA
BRANCH  28  29
HETATM   29  P   UNL     1      18.715 -38.293 -47.590  1.00  0.00     0.431 P 
HETATM   30  O   UNL     1      19.293 -37.043 -46.976  1.00  0.00    -0.616 OA
HETATM   31  O   UNL     1      19.160 -39.550 -46.886  1.00  0.00    -0.616 OA
HETATM   32  O   UNL     1      17.222 -38.227 -47.784  1.00  0.00    -0.616 OA
ENDBRANCH  28  29
ENDBRANCH  25  28
ENDBRANCH  24  25
ENDBRANCH  23  24
ENDBRANCH   1  23
BRANCH   3  33
HETATM   33  O   UNL     1      21.577 -38.942 -55.345  1.00  0.00    -0.390 OA
ATOM     34  HO  UNL     1      21.728 -39.627 -55.986  1.00  0.00     0.210 HD
ENDBRANCH   3  33
TORSDOF 9
ENDMDL
MODEL 14
REMARK VINA RESULT:    -6.787      1.312      2.202
REMARK INTER + INTRA:         -10.822
REMARK INTER:                 -10.024
REMARK INTRA:                  -0.799
REMARK UNBOUND:                -1.059
REMARK  9 active torsions:
REMARK  status: ('A' for Active; 'I' for Inactive)
REMARK    1  A    between atoms: P_1  and  O_8 
REMARK    2  A    between atoms: P_5  and  O_9 
REMARK    3  A    between atoms: P_5  and  O_8 
REMARK    4  A    between atoms: O_9  and  C_10 
REMARK    5  A    between atoms: C_10  and  C_11 
REMARK    6  A    between atoms: C_13  and  O_14 
REMARK    7  A    between atoms: C_16  and  O_17 
REMARK    8  A    between atoms: C_19  and  N_20 
REMARK    9  A    between atoms: C_25  and  N_26 
ROOT
HETATM    1  C   UNL     1      20.270 -39.066 -52.782  1.00  0.00     0.180 C 
HETATM    2  O   UNL     1      20.492 -38.254 -53.965  1.00  0.00    -0.353 OA
HETATM    3  C   UNL     1      21.557 -39.880 -52.578  1.00  0.00     0.182 C 
HETATM    4  C   UNL     1      22.562 -39.171 -53.487  1.00  0.00     0.198 C 
HETATM    5  C   UNL     1      21.660 -38.687 -54.616  1.00  0.00     0.262 C 
ENDROOT
BRANCH   5   6
HETATM    6  N   UNL     1      22.247 -37.573 -55.344  1.00  0.00    -0.297 N 
HETATM    7  C   UNL     1      23.151 -36.666 -54.851  1.00  0.00     0.188 A 
HETATM    8  N   UNL     1      23.537 -35.783 -55.737  1.00  0.00    -0.346 N 
HETATM    9  C   UNL     1      22.850 -36.130 -56.890  1.00  0.00     0.122 A 
ATOM     10  HN  UNL     1      24.195 -35.014 -55.607  1.00  0.00     0.167 HD
HETATM   11  C   UNL     1      22.832 -35.574 -58.184  1.00  0.00     0.131 A 
HETATM   12  C   UNL     1      22.054 -37.235 -56.661  1.00  0.00     0.142 A 
HETATM   13  N   UNL     1      22.032 -36.161 -59.103  1.00  0.00    -0.337 N 
HETATM   14  C   UNL     1      21.315 -37.229 -58.737  1.00  0.00     0.183 A 
ATOM     15  HN  UNL     1      21.977 -35.797 -60.055  1.00  0.00     0.168 HD
HETATM   16  N   UNL     1      21.255 -37.837 -57.555  1.00  0.00    -0.336 N 
ATOM     17  HN  UNL     1      20.677 -38.653 -57.355  1.00  0.00     0.168 HD
BRANCH  11  18
HETATM   18  N   UNL     1      23.548 -34.513 -58.543  1.00  0.00    -0.383 N 
ATOM     19  HN2 UNL     1      23.487 -34.071 -59.460  1.00  0.00     0.157 HD
ATOM     20  HN1 UNL     1      24.202 -34.111 -57.870  1.00  0.00     0.157 HD
ENDBRANCH  11  18
ENDBRANCH   5   6
BRANCH   4  21
HETATM   21  O   UNL     1      23.593 -40.016 -53.946  1.00  0.00    -0.388 OA
ATOM     22  HO  UNL     1      24.410 -39.902 -53.476  1.00  0.00     0.210 HD
ENDBRANCH   4  21
BRANCH   1  23
HETATM   23  C   UNL     1      19.864 -38.162 -51.646  1.00  0.00     0.216 C 
BRANCH  23  24
HETATM   24  O   UNL     1      20.670 -38.498 -50.496  1.00  0.00    -0.287 OA
BRANCH  24  25
HETATM   25  P   UNL     1      21.021 -37.406 -49.376  1.00  0.00     0.418 P 
HETATM   26  O   UNL     1      22.492 -37.157 -49.351  1.00  0.00    -0.624 OA
HETATM   27  O   UNL     1      20.107 -36.239 -49.549  1.00  0.00    -0.624 OA
BRANCH  25  28
HETATM   28  O   UNL     1      20.606 -38.173 -48.033  1.00  0.00    -0.173 OA
BRANCH  28  29
HETATM   29  P   UNL     1      19.173 -38.297 -47.305  1.00  0.00     0.431 P 
HETATM   30  O   UNL     1      19.042 -37.074 -46.432  1.00  0.00    -0.616 OA
HETATM   31  O   UNL     1      19.247 -39.577 -46.511  1.00  0.00    -0.616 OA
HETATM   32  O   UNL     1      18.153 -38.352 -48.412  1.00  0.00    -0.616 OA
ENDBRANCH  28  29
ENDBRANCH  25  28
ENDBRANCH  24  25
ENDBRANCH  23  24
ENDBRANCH   1  23
BRANCH   3  33
HETATM   33  O   UNL     1      21.384 -41.227 -52.996  1.00  0.00    -0.390 OA
ATOM     34  HO  UNL     1      21.871 -41.824 -52.441  1.00  0.00     0.210 HD
ENDBRANCH   3  33
TORSDOF 9
ENDMDL
MODEL 15
REMARK VINA RESULT:    -6.724      4.015      5.526
REMARK INTER + INTRA:         -10.731
REMARK INTER:                  -9.218
REMARK INTRA:                  -1.513
REMARK UNBOUND:                -1.059
REMARK  9 active torsions:
REMARK  status: ('A' for Active; 'I' for Inactive)
REMARK    1  A    between atoms: P_1  and  O_8 
REMARK    2  A    between atoms: P_5  and  O_9 
REMARK    3  A    between atoms: P_5  and  O_8 
REMARK    4  A    between atoms: O_9  and  C_10 
REMARK    5  A    between atoms: C_10  and  C_11 
REMARK    6  A    between atoms: C_13  and  O_14 
REMARK    7  A    between atoms: C_16  and  O_17 
REMARK    8  A    between atoms: C_19  and  N_20 
REMARK    9  A    between atoms: C_25  and  N_26 
ROOT
HETATM    1  C   UNL     1      24.379 -37.861 -48.615  1.00  0.00     0.180 C 
HETATM    2  O   UNL     1      24.574 -38.936 -49.571  1.00  0.00    -0.353 OA
HETATM    3  C   UNL     1      25.005 -36.609 -49.251  1.00  0.00     0.182 C 
HETATM    4  C   UNL     1      25.187 -37.019 -50.713  1.00  0.00     0.198 C 
HETATM    5  C   UNL     1      25.460 -38.512 -50.577  1.00  0.00     0.262 C 
ENDROOT
BRANCH   5   6
HETATM    6  N   UNL     1      25.173 -39.233 -51.807  1.00  0.00    -0.297 N 
HETATM    7  C   UNL     1      26.085 -39.609 -52.761  1.00  0.00     0.188 A 
HETATM    8  N   UNL     1      25.553 -40.276 -53.753  1.00  0.00    -0.346 N 
HETATM    9  C   UNL     1      24.205 -40.351 -53.435  1.00  0.00     0.122 A 
ATOM     10  HN  UNL     1      26.024 -40.656 -54.575  1.00  0.00     0.167 HD
HETATM   11  C   UNL     1      23.108 -40.937 -54.096  1.00  0.00     0.131 A 
HETATM   12  C   UNL     1      23.959 -39.715 -52.235  1.00  0.00     0.142 A 
HETATM   13  N   UNL     1      21.895 -40.827 -53.507  1.00  0.00    -0.337 N 
HETATM   14  C   UNL     1      21.808 -40.180 -52.340  1.00  0.00     0.183 A 
ATOM     15  HN  UNL     1      21.066 -41.229 -53.944  1.00  0.00     0.168 HD
HETATM   16  N   UNL     1      22.768 -39.594 -51.629  1.00  0.00    -0.336 N 
ATOM     17  HN  UNL     1      22.618 -39.116 -50.741  1.00  0.00     0.168 HD
BRANCH  11  18
HETATM   18  N   UNL     1      23.201 -41.581 -55.255  1.00  0.00    -0.383 N 
ATOM     19  HN2 UNL     1      22.526 -41.484 -56.014  1.00  0.00     0.157 HD
ATOM     20  HN1 UNL     1      23.988 -42.213 -55.404  1.00  0.00     0.157 HD
ENDBRANCH  11  18
ENDBRANCH   5   6
BRANCH   4  21
HETATM   21  O   UNL     1      26.240 -36.336 -51.357  1.00  0.00    -0.388 OA
ATOM     22  HO  UNL     1      26.809 -36.908 -51.857  1.00  0.00     0.210 HD
ENDBRANCH   4  21
BRANCH   1  23
HETATM   23  C   UNL     1      22.913 -37.777 -48.276  1.00  0.00     0.216 C 
BRANCH  23  24
HETATM   24  O   UNL     1      22.189 -37.470 -49.487  1.00  0.00    -0.287 OA
BRANCH  24  25
HETATM   25  P   UNL     1      20.597 -37.294 -49.484  1.00  0.00     0.418 P 
HETATM   26  O   UNL     1      20.237 -35.908 -49.907  1.00  0.00    -0.624 OA
HETATM   27  O   UNL     1      19.991 -38.440 -50.223  1.00  0.00    -0.624 OA
BRANCH  25  28
HETATM   28  O   UNL     1      20.253 -37.461 -47.929  1.00  0.00    -0.173 OA
BRANCH  28  29
HETATM   29  P   UNL     1      19.210 -38.447 -47.194  1.00  0.00     0.431 P 
HETATM   30  O   UNL     1      19.126 -37.973 -45.764  1.00  0.00    -0.616 OA
HETATM   31  O   UNL     1      19.816 -39.822 -47.320  1.00  0.00    -0.616 OA
HETATM   32  O   UNL     1      17.912 -38.306 -47.946  1.00  0.00    -0.616 OA
ENDBRANCH  28  29
ENDBRANCH  25  28
ENDBRANCH  24  25
ENDBRANCH  23  24
ENDBRANCH   1  23
BRANCH   3  33
HETATM   33  O   UNL     1      26.264 -36.311 -48.664  1.00  0.00    -0.390 OA
ATOM     34  HO  UNL     1      26.385 -35.374 -48.570  1.00  0.00     0.210 HD
ENDBRANCH   3  33
TORSDOF 9
ENDMDL
MODEL 16
REMARK VINA RESULT:    -6.662      3.198      5.108
REMARK INTER + INTRA:         -10.642
REMARK INTER:                  -9.491
REMARK INTRA:                  -1.151
REMARK UNBOUND:                -1.059
REMARK  9 active torsions:
REMARK  status: ('A' for Active; 'I' for Inactive)
REMARK    1  A    between atoms: P_1  and  O_8 
REMARK    2  A    between atoms: P_5  and  O_9 
REMARK    3  A    between atoms: P_5  and  O_8 
REMARK    4  A    between atoms: O_9  and  C_10 
REMARK    5  A    between atoms: C_10  and  C_11 
REMARK    6  A    between atoms: C_13  and  O_14 
REMARK    7  A    between atoms: C_16  and  O_17 
REMARK    8  A    between atoms: C_19  and  N_20 
REMARK    9  A    between atoms: C_25  and  N_26 
ROOT
HETATM    1  C   UNL     1      26.124 -38.662 -49.175  1.00  0.00     0.180 C 
HETATM    2  O   UNL     1      25.982 -38.643 -50.620  1.00  0.00    -0.353 OA
HETATM    3  C   UNL     1      26.103 -37.192 -48.727  1.00  0.00     0.182 C 
HETATM    4  C   UNL     1      25.576 -36.462 -49.962  1.00  0.00     0.198 C 
HETATM    5  C   UNL     1      26.135 -37.325 -51.086  1.00  0.00     0.262 C 
ENDROOT
BRANCH   5   6
HETATM    6  N   UNL     1      25.387 -37.163 -52.323  1.00  0.00    -0.297 N 
HETATM    7  C   UNL     1      24.224 -37.809 -52.660  1.00  0.00     0.188 A 
HETATM    8  N   UNL     1      23.748 -37.446 -53.825  1.00  0.00    -0.346 N 
HETATM    9  C   UNL     1      24.648 -36.498 -54.285  1.00  0.00     0.122 A 
ATOM     10  HN  UNL     1      22.905 -37.786 -54.288  1.00  0.00     0.167 HD
HETATM   11  C   UNL     1      24.697 -35.735 -55.468  1.00  0.00     0.131 A 
HETATM   12  C   UNL     1      25.662 -36.311 -53.366  1.00  0.00     0.142 A 
HETATM   13  N   UNL     1      25.736 -34.882 -55.617  1.00  0.00    -0.337 N 
HETATM   14  C   UNL     1      26.646 -34.807 -54.638  1.00  0.00     0.183 A 
ATOM     15  HN  UNL     1      25.824 -34.308 -56.456  1.00  0.00     0.168 HD
HETATM   16  N   UNL     1      26.700 -35.470 -53.487  1.00  0.00    -0.336 N 
ATOM     17  HN  UNL     1      27.434 -35.355 -52.789  1.00  0.00     0.168 HD
BRANCH  11  18
HETATM   18  N   UNL     1      23.789 -35.813 -56.436  1.00  0.00    -0.383 N 
ATOM     19  HN2 UNL     1      24.011 -35.739 -57.429  1.00  0.00     0.157 HD
ATOM     20  HN1 UNL     1      22.811 -35.952 -56.181  1.00  0.00     0.157 HD
ENDBRANCH  11  18
ENDBRANCH   5   6
BRANCH   4  21
HETATM   21  O   UNL     1      26.009 -35.122 -50.046  1.00  0.00    -0.388 OA
ATOM     22  HO  UNL     1      25.968 -34.768 -50.926  1.00  0.00     0.210 HD
ENDBRANCH   4  21
BRANCH   1  23
HETATM   23  C   UNL     1      25.052 -39.552 -48.598  1.00  0.00     0.216 C 
BRANCH  23  24
HETATM   24  O   UNL     1      23.787 -39.164 -49.176  1.00  0.00    -0.287 OA
BRANCH  24  25
HETATM   25  P   UNL     1      22.534 -38.776 -48.255  1.00  0.00     0.418 P 
HETATM   26  O   UNL     1      21.632 -39.956 -48.100  1.00  0.00    -0.624 OA
HETATM   27  O   UNL     1      23.041 -38.105 -47.022  1.00  0.00    -0.624 OA
BRANCH  25  28
HETATM   28  O   UNL     1      21.795 -37.679 -49.156  1.00  0.00    -0.173 OA
BRANCH  28  29
HETATM   29  P   UNL     1      20.238 -37.265 -49.224  1.00  0.00     0.431 P 
HETATM   30  O   UNL     1      19.562 -38.322 -50.061  1.00  0.00    -0.616 OA
HETATM   31  O   UNL     1      20.222 -35.905 -49.876  1.00  0.00    -0.616 OA
HETATM   32  O   UNL     1      19.757 -37.237 -47.796  1.00  0.00    -0.616 OA
ENDBRANCH  28  29
ENDBRANCH  25  28
ENDBRANCH  24  25
ENDBRANCH  23  24
ENDBRANCH   1  23
BRANCH   3  33
HETATM   33  O   UNL     1      27.410 -36.736 -48.407  1.00  0.00    -0.390 OA
ATOM     34  HO  UNL     1      28.060 -37.130 -48.977  1.00  0.00     0.210 HD
ENDBRANCH   3  33
TORSDOF 9
ENDMDL
MODEL 17
REMARK VINA RESULT:    -6.653      4.478      5.568
REMARK INTER + INTRA:         -10.629
REMARK INTER:                  -9.981
REMARK INTRA:                  -0.648
REMARK UNBOUND:                -1.059
REMARK  9 active torsions:
REMARK  status: ('A' for Active; 'I' for Inactive)
REMARK    1  A    between atoms: P_1  and  O_8 
REMARK    2  A    between atoms: P_5  and  O_9 
REMARK    3  A    between atoms: P_5  and  O_8 
REMARK    4  A    between atoms: O_9  and  C_10 
REMARK    5  A    between atoms: C_10  and  C_11 
REMARK    6  A    between atoms: C_13  and  O_14 
REMARK    7  A    between atoms: C_16  and  O_17 
REMARK    8  A    between atoms: C_19  and  N_20 
REMARK    9  A    between atoms: C_25  and  N_26 
ROOT
HETATM    1  C   UNL     1      24.040 -38.472 -49.715  1.00  0.00     0.180 C 
HETATM    2  O   UNL     1      24.637 -38.222 -51.015  1.00  0.00    -0.353 OA
HETATM    3  C   UNL     1      25.203 -38.486 -48.710  1.00  0.00     0.182 C 
HETATM    4  C   UNL     1      26.353 -37.867 -49.505  1.00  0.00     0.198 C 
HETATM    5  C   UNL     1      26.034 -38.340 -50.918  1.00  0.00     0.262 C 
ENDROOT
BRANCH   5   6
HETATM    6  N   UNL     1      26.659 -37.500 -51.928  1.00  0.00    -0.297 N 
HETATM    7  C   UNL     1      26.328 -36.202 -52.225  1.00  0.00     0.188 A 
HETATM    8  N   UNL     1      27.078 -35.675 -53.159  1.00  0.00    -0.346 N 
HETATM    9  C   UNL     1      27.965 -36.686 -53.499  1.00  0.00     0.122 A 
ATOM     10  HN  UNL     1      27.023 -34.734 -53.549  1.00  0.00     0.167 HD
HETATM   11  C   UNL     1      29.016 -36.747 -54.434  1.00  0.00     0.131 A 
HETATM   12  C   UNL     1      27.719 -37.815 -52.744  1.00  0.00     0.142 A 
HETATM   13  N   UNL     1      29.703 -37.909 -54.525  1.00  0.00    -0.337 N 
HETATM   14  C   UNL     1      29.351 -38.922 -53.725  1.00  0.00     0.183 A 
ATOM     15  HN  UNL     1      30.471 -38.010 -55.188  1.00  0.00     0.168 HD
HETATM   16  N   UNL     1      28.386 -38.978 -52.812  1.00  0.00    -0.336 N 
ATOM     17  HN  UNL     1      28.180 -39.796 -52.239  1.00  0.00     0.168 HD
BRANCH  11  18
HETATM   18  N   UNL     1      29.362 -35.735 -55.225  1.00  0.00    -0.383 N 
ATOM     19  HN2 UNL     1      30.243 -35.227 -55.143  1.00  0.00     0.157 HD
ATOM     20  HN1 UNL     1      28.715 -35.441 -55.956  1.00  0.00     0.157 HD
ENDBRANCH  11  18
ENDBRANCH   5   6
BRANCH   4  21
HETATM   21  O   UNL     1      27.626 -38.294 -49.069  1.00  0.00    -0.388 OA
ATOM     22  HO  UNL     1      27.636 -39.192 -48.763  1.00  0.00     0.210 HD
ENDBRANCH   4  21
BRANCH   1  23
HETATM   23  C   UNL     1      22.961 -37.447 -49.474  1.00  0.00     0.216 C 
BRANCH  23  24
HETATM   24  O   UNL     1      21.685 -38.122 -49.515  1.00  0.00    -0.287 OA
BRANCH  24  25
HETATM   25  P   UNL     1      20.403 -37.438 -50.191  1.00  0.00     0.418 P 
HETATM   26  O   UNL     1      20.357 -35.987 -49.844  1.00  0.00    -0.624 OA
HETATM   27  O   UNL     1      20.364 -37.823 -51.632  1.00  0.00    -0.624 OA
BRANCH  25  28
HETATM   28  O   UNL     1      19.202 -38.185 -49.440  1.00  0.00    -0.173 OA
BRANCH  28  29
HETATM   29  P   UNL     1      18.899 -38.345 -47.864  1.00  0.00     0.431 P 
HETATM   30  O   UNL     1      19.646 -39.578 -47.420  1.00  0.00    -0.616 OA
HETATM   31  O   UNL     1      17.402 -38.501 -47.767  1.00  0.00    -0.616 OA
HETATM   32  O   UNL     1      19.400 -37.079 -47.219  1.00  0.00    -0.616 OA
ENDBRANCH  28  29
ENDBRANCH  25  28
ENDBRANCH  24  25
ENDBRANCH  23  24
ENDBRANCH   1  23
BRANCH   3  33
HETATM   33  O   UNL     1      25.531 -39.814 -48.325  1.00  0.00    -0.390 OA
ATOM     34  HO  UNL     1      26.439 -40.014 -48.522  1.00  0.00     0.210 HD
ENDBRANCH   3  33
TORSDOF 9
ENDMDL
MODEL 18
REMARK VINA RESULT:    -6.633      5.816      7.879
REMARK INTER + INTRA:         -10.600
REMARK INTER:                  -9.761
REMARK INTRA:                  -0.839
REMARK UNBOUND:                -1.059
REMARK  9 active torsions:
REMARK  status: ('A' for Active; 'I' for Inactive)
REMARK    1  A    between atoms: P_1  and  O_8 
REMARK    2  A    between atoms: P_5  and  O_9 
REMARK    3  A    between atoms: P_5  and  O_8 
REMARK    4  A    between atoms: O_9  and  C_10 
REMARK    5  A    between atoms: C_10  and  C_11 
REMARK    6  A    between atoms: C_13  and  O_14 
REMARK    7  A    between atoms: C_16  and  O_17 
REMARK    8  A    between atoms: C_19  and  N_20 
REMARK    9  A    between atoms: C_25  and  N_26 
ROOT
HETATM    1  C   UNL     1      23.532 -38.180 -48.998  1.00  0.00     0.180 C 
HETATM    2  O   UNL     1      24.490 -39.015 -48.297  1.00  0.00    -0.353 OA
HETATM    3  C   UNL     1      24.344 -37.365 -50.017  1.00  0.00     0.182 C 
HETATM    4  C   UNL     1      25.687 -38.096 -50.051  1.00  0.00     0.198 C 
HETATM    5  C   UNL     1      25.794 -38.599 -48.617  1.00  0.00     0.262 C 
ENDROOT
BRANCH   5   6
HETATM    6  N   UNL     1      26.703 -39.730 -48.503  1.00  0.00    -0.297 N 
HETATM    7  C   UNL     1      27.949 -39.717 -47.929  1.00  0.00     0.188 A 
HETATM    8  N   UNL     1      28.535 -40.887 -47.935  1.00  0.00    -0.346 N 
HETATM    9  C   UNL     1      27.619 -41.729 -48.547  1.00  0.00     0.122 A 
ATOM     10  HN  UNL     1      29.459 -41.125 -47.571  1.00  0.00     0.167 HD
HETATM   11  C   UNL     1      27.653 -43.103 -48.851  1.00  0.00     0.131 A 
HETATM   12  C   UNL     1      26.483 -41.027 -48.898  1.00  0.00     0.142 A 
HETATM   13  N   UNL     1      26.572 -43.632 -49.469  1.00  0.00    -0.337 N 
HETATM   14  C   UNL     1      25.540 -42.828 -49.748  1.00  0.00     0.183 A 
ATOM     15  HN  UNL     1      26.545 -44.621 -49.716  1.00  0.00     0.168 HD
HETATM   16  N   UNL     1      25.397 -41.527 -49.508  1.00  0.00    -0.336 N 
ATOM     17  HN  UNL     1      24.572 -40.982 -49.755  1.00  0.00     0.168 HD
BRANCH  11  18
HETATM   18  N   UNL     1      28.681 -43.897 -48.569  1.00  0.00    -0.383 N 
ATOM     19  HN2 UNL     1      29.626 -43.559 -48.386  1.00  0.00     0.157 HD
ATOM     20  HN1 UNL     1      28.528 -44.906 -48.534  1.00  0.00     0.157 HD
ENDBRANCH  11  18
ENDBRANCH   5   6
BRANCH   4  21
HETATM   21  O   UNL     1      26.767 -37.263 -50.412  1.00  0.00    -0.388 OA
ATOM     22  HO  UNL     1      27.270 -36.956 -49.667  1.00  0.00     0.210 HD
ENDBRANCH   4  21
BRANCH   1  23
HETATM   23  C   UNL     1      22.444 -39.059 -49.559  1.00  0.00     0.216 C 
BRANCH  23  24
HETATM   24  O   UNL     1      21.690 -38.283 -50.515  1.00  0.00    -0.287 OA
BRANCH  24  25
HETATM   25  P   UNL     1      20.215 -37.753 -50.180  1.00  0.00     0.418 P 
HETATM   26  O   UNL     1      20.278 -36.340 -49.703  1.00  0.00    -0.624 OA
HETATM   27  O   UNL     1      19.322 -38.073 -51.331  1.00  0.00    -0.624 OA
BRANCH  25  28
HETATM   28  O   UNL     1      19.804 -38.692 -48.950  1.00  0.00    -0.173 OA
BRANCH  28  29
HETATM   29  P   UNL     1      18.978 -38.348 -47.608  1.00  0.00     0.431 P 
HETATM   30  O   UNL     1      19.494 -37.014 -47.132  1.00  0.00    -0.616 OA
HETATM   31  O   UNL     1      19.295 -39.473 -46.654  1.00  0.00    -0.616 OA
HETATM   32  O   UNL     1      17.527 -38.316 -48.015  1.00  0.00    -0.616 OA
ENDBRANCH  28  29
ENDBRANCH  25  28
ENDBRANCH  24  25
ENDBRANCH  23  24
ENDBRANCH   1  23
BRANCH   3  33
HETATM   33  O   UNL     1      24.525 -36.027 -49.576  1.00  0.00    -0.390 OA
ATOM     34  HO  UNL     1      23.910 -35.440 -50.000  1.00  0.00     0.210 HD
ENDBRANCH   3  33
TORSDOF 9
ENDMDL
MODEL 19
REMARK VINA RESULT:    -6.531      2.842      4.039
REMARK INTER + INTRA:         -10.454
REMARK INTER:                  -9.718
REMARK INTRA:                  -0.736
REMARK UNBOUND:                -1.059
REMARK  9 active torsions:
REMARK  status: ('A' for Active; 'I' for Inactive)
REMARK    1  A    between atoms: P_1  and  O_8 
REMARK    2  A    between atoms: P_5  and  O_9 
REMARK    3  A    between atoms: P_5  and  O_8 
REMARK    4  A    between atoms: O_9  and  C_10 
REMARK    5  A    between atoms: C_10  and  C_11 
REMARK    6  A    between atoms: C_13  and  O_14 
REMARK    7  A    between atoms: C_16  and  O_17 
REMARK    8  A    between atoms: C_19  and  N_20 
REMARK    9  A    between atoms: C_25  and  N_26 
ROOT
HETATM    1  C   UNL     1      23.419 -38.157 -51.193  1.00  0.00     0.180 C 
HETATM    2  O   UNL     1      23.614 -37.869 -52.602  1.00  0.00    -0.353 OA
HETATM    3  C   UNL     1      24.749 -37.819 -50.502  1.00  0.00     0.182 C 
HETATM    4  C   UNL     1      25.491 -37.005 -51.562  1.00  0.00     0.198 C 
HETATM    5  C   UNL     1      24.980 -37.643 -52.847  1.00  0.00     0.262 C 
ENDROOT
BRANCH   5   6
HETATM    6  N   UNL     1      25.123 -36.756 -53.991  1.00  0.00    -0.297 N 
HETATM    7  C   UNL     1      24.103 -36.198 -54.720  1.00  0.00     0.188 A 
HETATM    8  N   UNL     1      24.520 -35.411 -55.679  1.00  0.00    -0.346 N 
HETATM    9  C   UNL     1      25.902 -35.446 -55.577  1.00  0.00     0.122 A 
ATOM     10  HN  UNL     1      23.955 -34.890 -56.351  1.00  0.00     0.167 HD
HETATM   11  C   UNL     1      26.922 -34.815 -56.315  1.00  0.00     0.131 A 
HETATM   12  C   UNL     1      26.286 -36.269 -54.537  1.00  0.00     0.142 A 
HETATM   13  N   UNL     1      28.201 -35.067 -55.953  1.00  0.00    -0.337 N 
HETATM   14  C   UNL     1      28.422 -35.889 -54.921  1.00  0.00     0.183 A 
ATOM     15  HN  UNL     1      28.979 -34.640 -56.457  1.00  0.00     0.168 HD
HETATM   16  N   UNL     1      27.546 -36.533 -54.156  1.00  0.00    -0.336 N 
ATOM     17  HN  UNL     1      27.797 -37.147 -53.382  1.00  0.00     0.168 HD
BRANCH  11  18
HETATM   18  N   UNL     1      26.696 -33.998 -57.340  1.00  0.00    -0.383 N 
ATOM     19  HN2 UNL     1      25.787 -33.894 -57.792  1.00  0.00     0.157 HD
ATOM     20  HN1 UNL     1      27.469 -33.441 -57.703  1.00  0.00     0.157 HD
ENDBRANCH  11  18
ENDBRANCH   5   6
BRANCH   4  21
HETATM   21  O   UNL     1      26.895 -37.082 -51.444  1.00  0.00    -0.388 OA
ATOM     22  HO  UNL     1      27.189 -37.833 -50.945  1.00  0.00     0.210 HD
ENDBRANCH   4  21
BRANCH   1  23
HETATM   23  C   UNL     1      22.205 -37.404 -50.710  1.00  0.00     0.216 C 
BRANCH  23  24
HETATM   24  O   UNL     1      21.239 -38.367 -50.236  1.00  0.00    -0.287 OA
BRANCH  24  25
HETATM   25  P   UNL     1      21.448 -39.142 -48.849  1.00  0.00     0.418 P 
HETATM   26  O   UNL     1      21.945 -40.526 -49.109  1.00  0.00    -0.624 OA
HETATM   27  O   UNL     1      22.234 -38.268 -47.930  1.00  0.00    -0.624 OA
BRANCH  25  28
HETATM   28  O   UNL     1      19.947 -39.231 -48.297  1.00  0.00    -0.173 OA
BRANCH  28  29
HETATM   29  P   UNL     1      19.021 -38.101 -47.614  1.00  0.00     0.431 P 
HETATM   30  O   UNL     1      19.449 -36.789 -48.221  1.00  0.00    -0.616 OA
HETATM   31  O   UNL     1      19.321 -38.189 -46.138  1.00  0.00    -0.616 OA
HETATM   32  O   UNL     1      17.600 -38.478 -47.947  1.00  0.00    -0.616 OA
ENDBRANCH  28  29
ENDBRANCH  25  28
ENDBRANCH  24  25
ENDBRANCH  23  24
ENDBRANCH   1  23
BRANCH   3  33
HETATM   33  O   UNL     1      25.478 -38.998 -50.189  1.00  0.00    -0.390 OA
ATOM     34  HO  UNL     1      25.892 -38.929 -49.337  1.00  0.00     0.210 HD
ENDBRANCH   3  33
TORSDOF 9
ENDMDL
MODEL 20
REMARK VINA RESULT:    -6.523      3.308      4.889
REMARK INTER + INTRA:         -10.442
REMARK INTER:                  -8.971
REMARK INTRA:                  -1.471
REMARK UNBOUND:                -1.059
REMARK  9 active torsions:
REMARK  status: ('A' for Active; 'I' for Inactive)
REMARK    1  A    between atoms: P_1  and  O_8 
REMARK    2  A    between atoms: P_5  and  O_9 
REMARK    3  A    between atoms: P_5  and  O_8 
REMARK    4  A    between atoms: O_9  and  C_10 
REMARK    5  A    between atoms: C_10  and  C_11 
REMARK    6  A    between atoms: C_13  and  O_14 
REMARK    7  A    between atoms: C_16  and  O_17 
REMARK    8  A    between atoms: C_19  and  N_20 
REMARK    9  A    between atoms: C_25  and  N_26 
ROOT
HETATM    1  C   UNL     1      20.679 -38.141 -52.936  1.00  0.00     0.180 C 
HETATM    2  O   UNL     1      22.048 -37.772 -52.623  1.00  0.00    -0.353 OA
HETATM    3  C   UNL     1      20.759 -39.490 -53.668  1.00  0.00     0.182 C 
HETATM    4  C   UNL     1      22.187 -39.955 -53.379  1.00  0.00     0.198 C 
HETATM    5  C   UNL     1      22.930 -38.626 -53.309  1.00  0.00     0.262 C 
ENDROOT
BRANCH   5   6
HETATM    6  N   UNL     1      24.173 -38.735 -52.561  1.00  0.00    -0.297 N 
HETATM    7  C   UNL     1      25.406 -38.292 -52.966  1.00  0.00     0.188 A 
HETATM    8  N   UNL     1      26.347 -38.491 -52.078  1.00  0.00    -0.346 N 
HETATM    9  C   UNL     1      25.696 -39.101 -51.017  1.00  0.00     0.122 A 
ATOM     10  HN  UNL     1      27.337 -38.253 -52.151  1.00  0.00     0.167 HD
HETATM   11  C   UNL     1      26.151 -39.564 -49.767  1.00  0.00     0.131 A 
HETATM   12  C   UNL     1      24.353 -39.253 -51.301  1.00  0.00     0.142 A 
HETATM   13  N   UNL     1      25.239 -40.128 -48.941  1.00  0.00    -0.337 N 
HETATM   14  C   UNL     1      23.968 -40.207 -49.353  1.00  0.00     0.183 A 
ATOM     15  HN  UNL     1      25.515 -40.484 -48.026  1.00  0.00     0.168 HD
HETATM   16  N   UNL     1      23.429 -39.805 -50.500  1.00  0.00    -0.336 N 
ATOM     17  HN  UNL     1      22.442 -39.904 -50.739  1.00  0.00     0.168 HD
BRANCH  11  18
HETATM   18  N   UNL     1      27.415 -39.481 -49.364  1.00  0.00    -0.383 N 
ATOM     19  HN2 UNL     1      28.201 -39.309 -49.991  1.00  0.00     0.157 HD
ATOM     20  HN1 UNL     1      27.622 -39.596 -48.371  1.00  0.00     0.157 HD
ENDBRANCH  11  18
ENDBRANCH   5   6
BRANCH   4  21
HETATM   21  O   UNL     1      22.708 -40.811 -54.372  1.00  0.00    -0.388 OA
ATOM     22  HO  UNL     1      22.930 -41.674 -54.045  1.00  0.00     0.210 HD
ENDBRANCH   4  21
BRANCH   1  23
HETATM   23  C   UNL     1      19.870 -38.117 -51.664  1.00  0.00     0.216 C 
BRANCH  23  24
HETATM   24  O   UNL     1      20.752 -38.435 -50.566  1.00  0.00    -0.287 OA
BRANCH  24  25
HETATM   25  P   UNL     1      21.000 -37.397 -49.370  1.00  0.00     0.418 P 
HETATM   26  O   UNL     1      22.456 -37.085 -49.260  1.00  0.00    -0.624 OA
HETATM   27  O   UNL     1      20.042 -36.263 -49.519  1.00  0.00    -0.624 OA
BRANCH  25  28
HETATM   28  O   UNL     1      20.562 -38.260 -48.094  1.00  0.00    -0.173 OA
BRANCH  28  29
HETATM   29  P   UNL     1      19.159 -38.307 -47.301  1.00  0.00     0.431 P 
HETATM   30  O   UNL     1      19.191 -39.566 -46.471  1.00  0.00    -0.616 OA
HETATM   31  O   UNL     1      18.102 -38.342 -48.376  1.00  0.00    -0.616 OA
HETATM   32  O   UNL     1      19.112 -37.049 -46.473  1.00  0.00    -0.616 OA
ENDBRANCH  28  29
ENDBRANCH  25  28
ENDBRANCH  24  25
ENDBRANCH  23  24
ENDBRANCH   1  23
BRANCH   3  33
HETATM   33  O   UNL     1      20.570 -39.327 -55.066  1.00  0.00    -0.390 OA
ATOM     34  HO  UNL     1      21.393 -39.401 -55.535  1.00  0.00     0.210 HD
ENDBRANCH   3  33
TORSDOF 9
ENDMDL
