REMARK  15 active torsions:
REMARK  status: ('A' for Active; 'I' for Inactive)
REMARK    1  A    between atoms: P_1  and  O_3 
REMARK    2  A    between atoms: P_1  and  O_4 
REMARK    3  A    between atoms: P_1  and  O_8 
REMARK    4  A    between atoms: P_5  and  O_7 
REMARK    5  A    between atoms: P_5  and  O_8 
REMARK    6  A    between atoms: P_5  and  O_12 
REMARK    7  A    between atoms: P_9  and  O_11 
REMARK    8  A    between atoms: P_9  and  O_12 
REMARK    9  A    between atoms: P_9  and  O_13 
REMARK   10  A    between atoms: O_13  and  C_14 
REMARK   11  A    between atoms: C_14  and  C_15 
REMARK   12  A    between atoms: C_17  and  O_18 
REMARK   13  A    between atoms: C_19  and  O_20 
REMARK   14  A    between atoms: C_21  and  N_22 
REMARK   15  A    between atoms: C_27  and  N_28 
ROOT
HETATM    1  C   UNL     1      -1.665  -1.975   0.726  1.00  0.00     0.180 C 
HETATM    2  O   UNL     1      -1.024  -3.069   0.096  1.00  0.00    -0.353 OA
HETATM    3  C   UNL     1      -0.731  -1.375   1.790  1.00  0.00     0.182 C 
HETATM    4  C   UNL     1       0.615  -1.911   1.371  1.00  0.00     0.198 C 
HETATM    5  C   UNL     1       0.254  -3.216   0.673  1.00  0.00     0.262 C 
ENDROOT
BRANCH   1   6
HETATM    6  C   UNL     1      -2.047  -0.941  -0.341  1.00  0.00     0.215 C 
BRANCH   6   7
HETATM    7  O   UNL     1      -2.912   0.019   0.221  1.00  0.00    -0.294 OA
BRANCH   7   8
HETATM    8  P   UNL     1      -3.115   1.287  -0.904  1.00  0.00     0.401 P 
HETATM    9  O   UNL     1      -3.592   0.729  -2.227  1.00  0.00    -0.631 OA
BRANCH   8  10
HETATM   10  O   UNL     1      -4.285   2.365  -0.322  1.00  0.00    -0.307 OA
HETATM   11  H   UNL     1      -5.091   1.810  -0.177  1.00  0.00     0.222 HD
ENDBRANCH   8  10
BRANCH   8  12
HETATM   12  O   UNL     1      -1.632   2.087  -1.150  1.00  0.00    -0.195 OA
BRANCH  12  13
HETATM   13  P   UNL     1      -1.309   3.013   0.241  1.00  0.00     0.410 P 
HETATM   14  O   UNL     1      -2.119   4.289   0.176  1.00  0.00    -0.631 OA
BRANCH  13  15
HETATM   15  O   UNL     1       0.337   3.404   0.234  1.00  0.00    -0.307 OA
HETATM   16  H   UNL     1       0.802   2.530   0.217  1.00  0.00     0.222 HD
ENDBRANCH  13  15
BRANCH  13  17
HETATM   17  O   UNL     1      -1.691   2.130   1.649  1.00  0.00    -0.195 OA
BRANCH  17  18
HETATM   18  P   UNL     1      -1.345   3.105   3.001  1.00  0.00     0.399 P 
HETATM   19  O   UNL     1       0.128   3.442   3.050  1.00  0.00    -0.631 OA
BRANCH  18  20
HETATM   20  O   UNL     1      -2.252   4.536   2.960  1.00  0.00    -0.307 OA
HETATM   21  H   UNL     1      -3.197   4.235   2.942  1.00  0.00     0.222 HD
ENDBRANCH  18  20
BRANCH  18  22
HETATM   22  O   UNL     1      -1.749   2.246   4.401  1.00  0.00    -0.307 OA
HETATM   23  H   UNL     1      -2.680   1.943   4.251  1.00  0.00     0.222 HD
ENDBRANCH  18  22
ENDBRANCH  17  18
ENDBRANCH  13  17
ENDBRANCH  12  13
ENDBRANCH   8  12
ENDBRANCH   7   8
ENDBRANCH   6   7
ENDBRANCH   1   6
BRANCH   3  24
HETATM   24  O   UNL     1      -1.084  -1.846   3.066  1.00  0.00    -0.390 OA
HETATM   25  H   UNL     1      -1.884  -1.327   3.345  1.00  0.00     0.210 HD
ENDBRANCH   3  24
BRANCH   5  26
HETATM   26  N   UNL     1       1.239  -3.548  -0.358  1.00  0.00    -0.297 N 
HETATM   27  C   UNL     1       2.277  -4.417  -0.253  1.00  0.00     0.188 A 
HETATM   28  N   UNL     1       3.057  -4.465  -1.369  1.00  0.00    -0.346 N 
HETATM   29  C   UNL     1       2.464  -3.571  -2.184  1.00  0.00     0.122 A 
ATOM     30  HN  UNL     1       3.884  -5.036  -1.544  1.00  0.00     0.167 HD
HETATM   31  C   UNL     1       2.818  -3.174  -3.469  1.00  0.00     0.131 A 
HETATM   32  C   UNL     1       1.386  -3.021  -1.581  1.00  0.00     0.142 A 
HETATM   33  N   UNL     1       2.042  -2.225  -4.075  1.00  0.00    -0.337 N 
HETATM   34  C   UNL     1       0.954  -1.682  -3.442  1.00  0.00     0.183 A 
ATOM     35  HN  UNL     1       2.278  -1.915  -5.018  1.00  0.00     0.168 HD
HETATM   36  N   UNL     1       0.616  -2.079  -2.178  1.00  0.00    -0.336 N 
ATOM     37  HN  UNL     1      -0.191  -1.679  -1.699  1.00  0.00     0.168 HD
BRANCH  31  38
HETATM   38  N   UNL     1       3.947  -3.729  -4.143  1.00  0.00    -0.383 N 
HETATM   39  H   UNL     1       4.174  -3.432  -5.119  1.00  0.00     0.157 HD
HETATM   40  H   UNL     1       4.558  -4.437  -3.678  1.00  0.00     0.157 HD
ENDBRANCH  31  38
ENDBRANCH   5  26
BRANCH   4  41
HETATM   41  O   UNL     1       1.515  -2.074   2.442  1.00  0.00    -0.388 OA
HETATM   42  H   UNL     1       1.195  -2.814   3.021  1.00  0.00     0.210 HD
ENDBRANCH   4  41
TORSDOF 15
