REMARK  15 active torsions:
REMARK  status: ('A' for Active; 'I' for Inactive)
REMARK    1  A    between atoms: P_1  and  O_3 
REMARK    2  A    between atoms: P_1  and  O_4 
REMARK    3  A    between atoms: P_1  and  C_8 
REMARK    4  A    between atoms: P_5  and  O_7 
REMARK    5  A    between atoms: P_5  and  C_8 
REMARK    6  A    between atoms: P_5  and  O_12 
REMARK    7  A    between atoms: P_9  and  O_11 
REMARK    8  A    between atoms: P_9  and  O_12 
REMARK    9  A    between atoms: P_9  and  O_13 
REMARK   10  A    between atoms: O_13  and  C_14 
REMARK   11  A    between atoms: C_14  and  C_15 
REMARK   12  A    between atoms: C_17  and  O_18 
REMARK   13  A    between atoms: C_19  and  O_20 
REMARK   14  A    between atoms: C_21  and  N_22 
REMARK   15  A    between atoms: C_27  and  N_28 
ROOT
HETATM    1  C   UNL     1      -0.789  -1.849   0.835  1.00  0.00     0.180 C 
HETATM    2  O   UNL     1      -0.446  -3.117   0.310  1.00  0.00    -0.353 OA
HETATM    3  C   UNL     1       0.485  -1.141   1.324  1.00  0.00     0.182 C 
HETATM    4  C   UNL     1       1.587  -1.912   0.635  1.00  0.00     0.198 C 
HETATM    5  C   UNL     1       0.951  -3.277   0.424  1.00  0.00     0.262 C 
ENDROOT
BRANCH   1   6
HETATM    6  C   UNL     1      -1.511  -1.040  -0.248  1.00  0.00     0.215 C 
BRANCH   6   7
HETATM    7  O   UNL     1      -1.984   0.164   0.308  1.00  0.00    -0.294 OA
BRANCH   7   8
HETATM    8  P   UNL     1      -2.722   1.083  -0.925  1.00  0.00     0.400 P 
HETATM    9  O   UNL     1      -1.751   1.317  -2.063  1.00  0.00    -0.631 OA
BRANCH   8  10
HETATM   10  O   UNL     1      -4.069   0.248  -1.518  1.00  0.00    -0.307 OA
HETATM   11  H   UNL     1      -4.678   0.169  -0.739  1.00  0.00     0.222 HD
ENDBRANCH   8  10
BRANCH   8  12
HETATM   12  O   UNL     1      -3.242   2.588  -0.319  1.00  0.00    -0.218 OA
BRANCH  12  13
HETATM   13  P   UNL     1      -1.991   3.249   0.636  1.00  0.00     0.258 P 
HETATM   14  O   UNL     1      -0.618   2.872   0.117  1.00  0.00    -0.653 OA
BRANCH  13  15
HETATM   15  O   UNL     1      -2.137   4.934   0.602  1.00  0.00    -0.328 OA
HETATM   16  H   UNL     1      -2.018   5.179  -0.351  1.00  0.00     0.220 HD
ENDBRANCH  13  15
BRANCH  13  17
HETATM   17  C   UNL     1      -2.185   2.692   2.361  1.00  0.00     0.250 C 
BRANCH  17  18
HETATM   18  P   UNL     1      -0.849   3.351   3.406  1.00  0.00     0.247 P 
HETATM   19  O   UNL     1      -0.861   4.862   3.358  1.00  0.00    -0.653 OA
BRANCH  18  20
HETATM   20  O   UNL     1      -1.091   2.846   5.005  1.00  0.00    -0.329 OA
HETATM   21  H   UNL     1      -1.042   1.858   4.969  1.00  0.00     0.220 HD
ENDBRANCH  18  20
BRANCH  18  22
HETATM   22  O   UNL     1       0.650   2.784   2.860  1.00  0.00    -0.329 OA
HETATM   23  H   UNL     1       0.573   1.797   2.888  1.00  0.00     0.220 HD
ENDBRANCH  18  22
ENDBRANCH  17  18
ENDBRANCH  13  17
ENDBRANCH  12  13
ENDBRANCH   8  12
ENDBRANCH   7   8
ENDBRANCH   6   7
ENDBRANCH   1   6
BRANCH   3  24
HETATM   24  O   UNL     1       0.593  -1.196   2.729  1.00  0.00    -0.390 OA
HETATM   25  H   UNL     1       0.558  -2.149   3.007  1.00  0.00     0.210 HD
ENDBRANCH   3  24
BRANCH   5  26
HETATM   26  N   UNL     1       1.490  -3.920  -0.777  1.00  0.00    -0.297 N 
HETATM   27  C   UNL     1       2.567  -4.744  -0.851  1.00  0.00     0.188 A 
HETATM   28  N   UNL     1       2.884  -5.109  -2.124  1.00  0.00    -0.346 N 
HETATM   29  C   UNL     1       1.954  -4.466  -2.857  1.00  0.00     0.122 A 
ATOM     30  HN  UNL     1       3.638  -5.718  -2.443  1.00  0.00     0.167 HD
HETATM   31  C   UNL     1       1.784  -4.431  -4.236  1.00  0.00     0.131 A 
HETATM   32  C   UNL     1       1.131  -3.750  -2.057  1.00  0.00     0.142 A 
HETATM   33  N   UNL     1       0.772  -3.656  -4.731  1.00  0.00    -0.337 N 
HETATM   34  C   UNL     1      -0.045  -2.932  -3.900  1.00  0.00     0.183 A 
ATOM     35  HN  UNL     1       0.621  -3.615  -5.739  1.00  0.00     0.168 HD
HETATM   36  N   UNL     1       0.132  -2.974  -2.545  1.00  0.00    -0.336 N 
ATOM     37  HN  UNL     1      -0.470  -2.438  -1.920  1.00  0.00     0.168 HD
BRANCH  31  38
HETATM   38  N   UNL     1       2.630  -5.170  -5.118  1.00  0.00    -0.383 N 
HETATM   39  H   UNL     1       2.473  -5.131  -6.150  1.00  0.00     0.157 HD
HETATM   40  H   UNL     1       3.403  -5.767  -4.747  1.00  0.00     0.157 HD
ENDBRANCH  31  38
ENDBRANCH   5  26
BRANCH   4  41
HETATM   41  O   UNL     1       2.746  -2.011   1.422  1.00  0.00    -0.388 OA
HETATM   42  H   UNL     1       3.195  -1.127   1.370  1.00  0.00     0.210 HD
ENDBRANCH   4  41
TORSDOF 15
