MODEL 1
REMARK VINA RESULT:    -6.883      0.000      0.000
REMARK INTER + INTRA:          -8.377
REMARK INTER:                  -8.090
REMARK INTRA:                  -0.288
REMARK UNBOUND:                -0.288
REMARK  5 active torsions:
REMARK  status: ('A' for Active; 'I' for Inactive)
REMARK    1  A    between atoms: C_1  and  O_15 
REMARK    2  A    between atoms: C_2  and  O_7 
REMARK    3  A    between atoms: C_3  and  O_9 
REMARK    4  A    between atoms: C_4  and  O_11 
REMARK    5  A    between atoms: C_5  and  C_6 
ROOT
HETATM    1  C   UNL     1      -3.095  -5.121 107.597  1.00  0.00     0.289 C 
HETATM    2  C   UNL     1      -2.057  -4.217 108.244  1.00  0.00     0.204 C 
HETATM    3  C   UNL     1      -0.726  -4.356 107.609  1.00  0.00     0.183 C 
HETATM    4  C   UNL     1      -0.276  -5.784 107.536  1.00  0.00     0.189 C 
HETATM    5  C   UNL     1      -1.349  -6.668 106.907  1.00  0.00     0.256 C 
HETATM    6  O   UNL     1      -2.639  -6.548 107.596  1.00  0.00    -0.340 OA
ENDROOT
BRANCH   5   7
HETATM    7  C   UNL     1      -0.929  -8.091 107.030  1.00  0.00     0.206 C 
HETATM    8  O   UNL     1      -1.470  -8.838 107.888  1.00  0.00    -0.646 OA
HETATM    9  O   UNL     1      -0.037  -8.524 106.255  1.00  0.00    -0.646 OA
ENDBRANCH   5   7
BRANCH   4  10
HETATM   10  O   UNL     1       0.924  -5.855 106.762  1.00  0.00    -0.390 OA
ATOM     11  HO  UNL     1       1.643  -5.503 107.273  1.00  0.00     0.210 HD
ENDBRANCH   4  10
BRANCH   1  12
HETATM   12  O   UNL     1      -4.264  -5.037 108.280  1.00  0.00    -0.368 OA
ATOM     13  HO  UNL     1      -4.228  -5.597 109.046  1.00  0.00     0.212 HD
ENDBRANCH   1  12
BRANCH   3  14
HETATM   14  O   UNL     1       0.248  -3.621 108.384  1.00  0.00    -0.390 OA
ATOM     15  HO  UNL     1      -0.024  -3.607 109.293  1.00  0.00     0.210 HD
ENDBRANCH   3  14
BRANCH   2  16
HETATM   16  O   UNL     1      -2.489  -2.854 108.099  1.00  0.00    -0.388 OA
ATOM     17  HO  UNL     1      -2.786  -2.543 108.945  1.00  0.00     0.210 HD
ENDBRANCH   2  16
TORSDOF 5
ENDMDL
MODEL 2
REMARK VINA RESULT:    -6.690      1.605      2.201
REMARK INTER + INTRA:          -8.151
REMARK INTER:                  -7.878
REMARK INTRA:                  -0.273
REMARK UNBOUND:                -0.288
REMARK  5 active torsions:
REMARK  status: ('A' for Active; 'I' for Inactive)
REMARK    1  A    between atoms: C_1  and  O_15 
REMARK    2  A    between atoms: C_2  and  O_7 
REMARK    3  A    between atoms: C_3  and  O_9 
REMARK    4  A    between atoms: C_4  and  O_11 
REMARK    5  A    between atoms: C_5  and  C_6 
ROOT
HETATM    1  C   UNL     1      -2.760  -5.981 106.303  1.00  0.00     0.289 C 
HETATM    2  C   UNL     1      -2.965  -5.794 107.798  1.00  0.00     0.204 C 
HETATM    3  C   UNL     1      -1.762  -5.238 108.458  1.00  0.00     0.183 C 
HETATM    4  C   UNL     1      -0.525  -6.022 108.143  1.00  0.00     0.189 C 
HETATM    5  C   UNL     1      -0.362  -6.214 106.638  1.00  0.00     0.256 C 
HETATM    6  O   UNL     1      -1.550  -6.820 106.026  1.00  0.00    -0.340 OA
ENDROOT
BRANCH   5   7
HETATM    7  C   UNL     1       0.770  -7.150 106.393  1.00  0.00     0.206 C 
HETATM    8  O   UNL     1       0.552  -8.293 105.910  1.00  0.00    -0.646 OA
HETATM    9  O   UNL     1       1.936  -6.768 106.671  1.00  0.00    -0.646 OA
ENDBRANCH   5   7
BRANCH   4  10
HETATM   10  O   UNL     1       0.611  -5.331 108.667  1.00  0.00    -0.390 OA
ATOM     11  HO  UNL     1       0.954  -4.747 108.000  1.00  0.00     0.210 HD
ENDBRANCH   4  10
BRANCH   1  12
HETATM   12  O   UNL     1      -3.846  -6.591 105.764  1.00  0.00    -0.368 OA
ATOM     13  HO  UNL     1      -4.551  -6.610 106.400  1.00  0.00     0.212 HD
ENDBRANCH   1  12
BRANCH   3  14
HETATM   14  O   UNL     1      -1.953  -5.263 109.891  1.00  0.00    -0.390 OA
ATOM     15  HO  UNL     1      -2.871  -5.413 110.080  1.00  0.00     0.210 HD
ENDBRANCH   3  14
BRANCH   2  16
HETATM   16  O   UNL     1      -4.056  -4.881 107.995  1.00  0.00    -0.388 OA
ATOM     17  HO  UNL     1      -4.118  -4.319 107.232  1.00  0.00     0.210 HD
ENDBRANCH   2  16
TORSDOF 5
ENDMDL
MODEL 3
REMARK VINA RESULT:    -6.484      1.289      2.905
REMARK INTER + INTRA:          -7.909
REMARK INTER:                  -7.735
REMARK INTRA:                  -0.174
REMARK UNBOUND:                -0.288
REMARK  5 active torsions:
REMARK  status: ('A' for Active; 'I' for Inactive)
REMARK    1  A    between atoms: C_1  and  O_15 
REMARK    2  A    between atoms: C_2  and  O_7 
REMARK    3  A    between atoms: C_3  and  O_9 
REMARK    4  A    between atoms: C_4  and  O_11 
REMARK    5  A    between atoms: C_5  and  C_6 
ROOT
HETATM    1  C   UNL     1      -1.123  -4.454 108.027  1.00  0.00     0.289 C 
HETATM    2  C   UNL     1      -2.396  -4.708 107.236  1.00  0.00     0.204 C 
HETATM    3  C   UNL     1      -2.662  -6.155 107.062  1.00  0.00     0.183 C 
HETATM    4  C   UNL     1      -1.482  -6.889 106.500  1.00  0.00     0.189 C 
HETATM    5  C   UNL     1      -0.217  -6.591 107.301  1.00  0.00     0.256 C 
HETATM    6  O   UNL     1       0.047  -5.152 107.403  1.00  0.00    -0.340 OA
ENDROOT
BRANCH   5   7
HETATM    7  C   UNL     1       0.948  -7.191 106.594  1.00  0.00     0.206 C 
HETATM    8  O   UNL     1       0.776  -8.135 105.777  1.00  0.00    -0.646 OA
HETATM    9  O   UNL     1       2.095  -6.727 106.824  1.00  0.00    -0.646 OA
ENDBRANCH   5   7
BRANCH   4  10
HETATM   10  O   UNL     1      -1.751  -8.292 106.526  1.00  0.00    -0.390 OA
ATOM     11  HO  UNL     1      -0.945  -8.759 106.714  1.00  0.00     0.210 HD
ENDBRANCH   4  10
BRANCH   1  12
HETATM   12  O   UNL     1      -0.866  -3.122 108.065  1.00  0.00    -0.368 OA
ATOM     13  HO  UNL     1      -0.160  -2.949 108.676  1.00  0.00     0.212 HD
ENDBRANCH   1  12
BRANCH   3  14
HETATM   14  O   UNL     1      -3.769  -6.327 106.149  1.00  0.00    -0.390 OA
ATOM     15  HO  UNL     1      -3.916  -5.515 105.680  1.00  0.00     0.210 HD
ENDBRANCH   3  14
BRANCH   2  16
HETATM   16  O   UNL     1      -3.498  -4.126 107.950  1.00  0.00    -0.388 OA
ATOM     17  HO  UNL     1      -3.897  -3.465 107.397  1.00  0.00     0.210 HD
ENDBRANCH   2  16
TORSDOF 5
ENDMDL
MODEL 4
REMARK VINA RESULT:    -5.957      1.425      3.770
REMARK INTER + INTRA:          -7.289
REMARK INTER:                  -6.998
REMARK INTRA:                  -0.291
REMARK UNBOUND:                -0.288
REMARK  5 active torsions:
REMARK  status: ('A' for Active; 'I' for Inactive)
REMARK    1  A    between atoms: C_1  and  O_15 
REMARK    2  A    between atoms: C_2  and  O_7 
REMARK    3  A    between atoms: C_3  and  O_9 
REMARK    4  A    between atoms: C_4  and  O_11 
REMARK    5  A    between atoms: C_5  and  C_6 
ROOT
HETATM    1  C   UNL     1      -0.415  -7.730 106.816  1.00  0.00     0.289 C 
HETATM    2  C   UNL     1       0.358  -6.455 107.117  1.00  0.00     0.204 C 
HETATM    3  C   UNL     1      -0.393  -5.549 108.016  1.00  0.00     0.183 C 
HETATM    4  C   UNL     1      -1.780  -5.275 107.520  1.00  0.00     0.189 C 
HETATM    5  C   UNL     1      -2.519  -6.572 107.203  1.00  0.00     0.256 C 
HETATM    6  O   UNL     1      -1.772  -7.418 106.265  1.00  0.00    -0.340 OA
ENDROOT
BRANCH   5   7
HETATM    7  C   UNL     1      -3.811  -6.239 106.543  1.00  0.00     0.206 C 
HETATM    8  O   UNL     1      -3.902  -6.254 105.287  1.00  0.00    -0.646 OA
HETATM    9  O   UNL     1      -4.800  -5.955 107.268  1.00  0.00    -0.646 OA
ENDBRANCH   5   7
BRANCH   4  10
HETATM   10  O   UNL     1      -2.496  -4.543 108.518  1.00  0.00    -0.390 OA
ATOM     11  HO  UNL     1      -2.849  -5.153 109.155  1.00  0.00     0.210 HD
ENDBRANCH   4  10
BRANCH   1  12
HETATM   12  O   UNL     1       0.265  -8.473 105.908  1.00  0.00    -0.368 OA
ATOM     13  HO  UNL     1       0.836  -7.912 105.397  1.00  0.00     0.212 HD
ENDBRANCH   1  12
BRANCH   3  14
HETATM   14  O   UNL     1       0.305  -4.287 108.108  1.00  0.00    -0.390 OA
ATOM     15  HO  UNL     1      -0.303  -3.580 107.924  1.00  0.00     0.210 HD
ENDBRANCH   3  14
BRANCH   2  16
HETATM   16  O   UNL     1       1.592  -6.813 107.759  1.00  0.00    -0.388 OA
ATOM     17  HO  UNL     1       1.388  -7.310 108.543  1.00  0.00     0.210 HD
ENDBRANCH   2  16
TORSDOF 5
ENDMDL
MODEL 5
REMARK VINA RESULT:    -5.729      7.910      9.822
REMARK INTER + INTRA:          -7.021
REMARK INTER:                  -6.740
REMARK INTRA:                  -0.281
REMARK UNBOUND:                -0.288
REMARK  5 active torsions:
REMARK  status: ('A' for Active; 'I' for Inactive)
REMARK    1  A    between atoms: C_1  and  O_15 
REMARK    2  A    between atoms: C_2  and  O_7 
REMARK    3  A    between atoms: C_3  and  O_9 
REMARK    4  A    between atoms: C_4  and  O_11 
REMARK    5  A    between atoms: C_5  and  C_6 
ROOT
HETATM    1  C   UNL     1     -11.692  -5.031 111.185  1.00  0.00     0.289 C 
HETATM    2  C   UNL     1     -10.847  -6.295 111.181  1.00  0.00     0.204 C 
HETATM    3  C   UNL     1      -9.407  -6.001 111.374  1.00  0.00     0.183 C 
HETATM    4  C   UNL     1      -8.903  -4.970 110.410  1.00  0.00     0.189 C 
HETATM    5  C   UNL     1      -9.787  -3.726 110.420  1.00  0.00     0.256 C 
HETATM    6  O   UNL     1     -11.196  -4.049 110.169  1.00  0.00    -0.340 OA
ENDROOT
BRANCH   5   7
HETATM    7  C   UNL     1      -9.353  -2.822 109.320  1.00  0.00     0.206 C 
HETATM    8  O   UNL     1      -8.490  -3.207 108.487  1.00  0.00    -0.646 OA
HETATM    9  O   UNL     1      -9.873  -1.679 109.241  1.00  0.00    -0.646 OA
ENDBRANCH   5   7
BRANCH   4  10
HETATM   10  O   UNL     1      -7.565  -4.614 110.768  1.00  0.00    -0.390 OA
ATOM     11  HO  UNL     1      -7.475  -4.658 111.713  1.00  0.00     0.210 HD
ENDBRANCH   4  10
BRANCH   1  12
HETATM   12  O   UNL     1     -12.981  -5.342 110.898  1.00  0.00    -0.368 OA
ATOM     13  HO  UNL     1     -13.061  -5.564 109.979  1.00  0.00     0.212 HD
ENDBRANCH   1  12
BRANCH   3  14
HETATM   14  O   UNL     1      -8.645  -7.212 111.171  1.00  0.00    -0.390 OA
ATOM     15  HO  UNL     1      -7.746  -6.983 110.966  1.00  0.00     0.210 HD
ENDBRANCH   3  14
BRANCH   2  16
HETATM   16  O   UNL     1     -11.287  -7.138 112.258  1.00  0.00    -0.388 OA
ATOM     17  HO  UNL     1     -11.818  -6.617 112.848  1.00  0.00     0.210 HD
ENDBRANCH   2  16
TORSDOF 5
ENDMDL
MODEL 6
REMARK VINA RESULT:    -5.657      1.754      3.615
REMARK INTER + INTRA:          -6.937
REMARK INTER:                  -6.658
REMARK INTRA:                  -0.279
REMARK UNBOUND:                -0.288
REMARK  5 active torsions:
REMARK  status: ('A' for Active; 'I' for Inactive)
REMARK    1  A    between atoms: C_1  and  O_15 
REMARK    2  A    between atoms: C_2  and  O_7 
REMARK    3  A    between atoms: C_3  and  O_9 
REMARK    4  A    between atoms: C_4  and  O_11 
REMARK    5  A    between atoms: C_5  and  C_6 
ROOT
HETATM    1  C   UNL     1      -0.712  -6.548 106.882  1.00  0.00     0.289 C 
HETATM    2  C   UNL     1      -0.680  -5.158 107.499  1.00  0.00     0.204 C 
HETATM    3  C   UNL     1      -1.966  -4.807 108.144  1.00  0.00     0.183 C 
HETATM    4  C   UNL     1      -3.135  -5.000 107.228  1.00  0.00     0.189 C 
HETATM    5  C   UNL     1      -3.124  -6.394 106.607  1.00  0.00     0.256 C 
HETATM    6  O   UNL     1      -1.857  -6.686 105.927  1.00  0.00    -0.340 OA
ENDROOT
BRANCH   5   7
HETATM    7  C   UNL     1      -4.192  -6.466 105.572  1.00  0.00     0.206 C 
HETATM    8  O   UNL     1      -5.404  -6.411 105.909  1.00  0.00    -0.646 OA
HETATM    9  O   UNL     1      -3.852  -6.572 104.365  1.00  0.00    -0.646 OA
ENDBRANCH   5   7
BRANCH   4  10
HETATM   10  O   UNL     1      -4.343  -4.811 107.968  1.00  0.00    -0.390 OA
ATOM     11  HO  UNL     1      -4.743  -3.991 107.704  1.00  0.00     0.210 HD
ENDBRANCH   4  10
BRANCH   1  12
HETATM   12  O   UNL     1       0.445  -6.779 106.213  1.00  0.00    -0.368 OA
ATOM     13  HO  UNL     1       0.517  -6.179 105.481  1.00  0.00     0.212 HD
ENDBRANCH   1  12
BRANCH   3  14
HETATM   14  O   UNL     1      -1.934  -3.417 108.539  1.00  0.00    -0.390 OA
ATOM     15  HO  UNL     1      -1.030  -3.139 108.627  1.00  0.00     0.210 HD
ENDBRANCH   3  14
BRANCH   2  16
HETATM   16  O   UNL     1       0.353  -5.128 108.497  1.00  0.00    -0.388 OA
ATOM     17  HO  UNL     1       1.119  -4.710 108.122  1.00  0.00     0.210 HD
ENDBRANCH   2  16
TORSDOF 5
ENDMDL
MODEL 7
REMARK VINA RESULT:    -5.630      7.566      9.302
REMARK INTER + INTRA:          -6.905
REMARK INTER:                  -6.617
REMARK INTRA:                  -0.288
REMARK UNBOUND:                -0.288
REMARK  5 active torsions:
REMARK  status: ('A' for Active; 'I' for Inactive)
REMARK    1  A    between atoms: C_1  and  O_15 
REMARK    2  A    between atoms: C_2  and  O_7 
REMARK    3  A    between atoms: C_3  and  O_9 
REMARK    4  A    between atoms: C_4  and  O_11 
REMARK    5  A    between atoms: C_5  and  C_6 
ROOT
HETATM    1  C   UNL     1     -10.696  -3.711 109.299  1.00  0.00     0.289 C 
HETATM    2  C   UNL     1      -9.330  -3.145 109.657  1.00  0.00     0.204 C 
HETATM    3  C   UNL     1      -8.375  -4.207 110.051  1.00  0.00     0.183 C 
HETATM    4  C   UNL     1      -8.925  -5.099 111.123  1.00  0.00     0.189 C 
HETATM    5  C   UNL     1     -10.306  -5.628 110.744  1.00  0.00     0.256 C 
HETATM    6  O   UNL     1     -11.241  -4.547 110.416  1.00  0.00    -0.340 OA
ENDROOT
BRANCH   5   7
HETATM    7  C   UNL     1     -10.879  -6.350 111.914  1.00  0.00     0.206 C 
HETATM    8  O   UNL     1     -10.352  -6.228 113.052  1.00  0.00    -0.646 OA
HETATM    9  O   UNL     1     -11.897  -7.067 111.737  1.00  0.00    -0.646 OA
ENDBRANCH   5   7
BRANCH   4  10
HETATM   10  O   UNL     1      -8.027  -6.193 111.324  1.00  0.00    -0.390 OA
ATOM     11  HO  UNL     1      -7.777  -6.547 110.479  1.00  0.00     0.210 HD
ENDBRANCH   4  10
BRANCH   1  12
HETATM   12  O   UNL     1     -11.561  -2.696 109.051  1.00  0.00    -0.368 OA
ATOM     13  HO  UNL     1     -11.363  -2.304 108.209  1.00  0.00     0.212 HD
ENDBRANCH   1  12
BRANCH   3  14
HETATM   14  O   UNL     1      -7.168  -3.595 110.557  1.00  0.00    -0.390 OA
ATOM     15  HO  UNL     1      -7.198  -2.661 110.387  1.00  0.00     0.210 HD
ENDBRANCH   3  14
BRANCH   2  16
HETATM   16  O   UNL     1      -8.805  -2.466 108.505  1.00  0.00    -0.388 OA
ATOM     17  HO  UNL     1      -8.132  -1.861 108.796  1.00  0.00     0.210 HD
ENDBRANCH   2  16
TORSDOF 5
ENDMDL
MODEL 8
REMARK VINA RESULT:    -5.619      0.918      3.947
REMARK INTER + INTRA:          -6.892
REMARK INTER:                  -6.672
REMARK INTRA:                  -0.220
REMARK UNBOUND:                -0.288
REMARK  5 active torsions:
REMARK  status: ('A' for Active; 'I' for Inactive)
REMARK    1  A    between atoms: C_1  and  O_15 
REMARK    2  A    between atoms: C_2  and  O_7 
REMARK    3  A    between atoms: C_3  and  O_9 
REMARK    4  A    between atoms: C_4  and  O_11 
REMARK    5  A    between atoms: C_5  and  C_6 
ROOT
HETATM    1  C   UNL     1      -1.207  -7.947 107.966  1.00  0.00     0.289 C 
HETATM    2  C   UNL     1       0.009  -7.650 107.103  1.00  0.00     0.204 C 
HETATM    3  C   UNL     1       0.594  -6.323 107.405  1.00  0.00     0.183 C 
HETATM    4  C   UNL     1      -0.425  -5.226 107.356  1.00  0.00     0.189 C 
HETATM    5  C   UNL     1      -1.642  -5.566 108.211  1.00  0.00     0.256 C 
HETATM    6  O   UNL     1      -2.231  -6.859 107.845  1.00  0.00    -0.340 OA
ENDROOT
BRANCH   5   7
HETATM    7  C   UNL     1      -2.693  -4.537 107.978  1.00  0.00     0.206 C 
HETATM    8  O   UNL     1      -2.402  -3.312 108.028  1.00  0.00    -0.646 OA
HETATM    9  O   UNL     1      -3.864  -4.921 107.723  1.00  0.00    -0.646 OA
ENDBRANCH   5   7
BRANCH   4  10
HETATM   10  O   UNL     1       0.172  -4.015 107.825  1.00  0.00    -0.390 OA
ATOM     11  HO  UNL     1      -0.307  -3.275 107.469  1.00  0.00     0.210 HD
ENDBRANCH   4  10
BRANCH   1  12
HETATM   12  O   UNL     1      -1.769  -9.119 107.578  1.00  0.00    -0.368 OA
ATOM     13  HO  UNL     1      -2.694  -8.991 107.409  1.00  0.00     0.212 HD
ENDBRANCH   1  12
BRANCH   3  14
HETATM   14  O   UNL     1       1.619  -6.024 106.431  1.00  0.00    -0.390 OA
ATOM     15  HO  UNL     1       1.727  -6.770 105.853  1.00  0.00     0.210 HD
ENDBRANCH   3  14
BRANCH   2  16
HETATM   16  O   UNL     1       1.003  -8.655 107.359  1.00  0.00    -0.388 OA
ATOM     17  HO  UNL     1       0.636  -9.502 107.137  1.00  0.00     0.210 HD
ENDBRANCH   2  16
TORSDOF 5
ENDMDL
MODEL 9
REMARK VINA RESULT:    -5.525      7.519      9.528
REMARK INTER + INTRA:          -6.782
REMARK INTER:                  -6.489
REMARK INTRA:                  -0.292
REMARK UNBOUND:                -0.288
REMARK  5 active torsions:
REMARK  status: ('A' for Active; 'I' for Inactive)
REMARK    1  A    between atoms: C_1  and  O_15 
REMARK    2  A    between atoms: C_2  and  O_7 
REMARK    3  A    between atoms: C_3  and  O_9 
REMARK    4  A    between atoms: C_4  and  O_11 
REMARK    5  A    between atoms: C_5  and  C_6 
ROOT
HETATM    1  C   UNL     1      -8.788  -6.415 111.646  1.00  0.00     0.289 C 
HETATM    2  C   UNL     1     -10.230  -6.044 111.956  1.00  0.00     0.204 C 
HETATM    3  C   UNL     1     -10.886  -5.363 110.816  1.00  0.00     0.183 C 
HETATM    4  C   UNL     1     -10.089  -4.196 110.314  1.00  0.00     0.189 C 
HETATM    5  C   UNL     1      -8.642  -4.596 110.038  1.00  0.00     0.256 C 
HETATM    6  O   UNL     1      -8.007  -5.215 111.206  1.00  0.00    -0.340 OA
ENDROOT
BRANCH   5   7
HETATM    7  C   UNL     1      -7.859  -3.369 109.725  1.00  0.00     0.206 C 
HETATM    8  O   UNL     1      -7.893  -2.875 108.566  1.00  0.00    -0.646 OA
HETATM    9  O   UNL     1      -7.179  -2.839 110.641  1.00  0.00    -0.646 OA
ENDBRANCH   5   7
BRANCH   4  10
HETATM   10  O   UNL     1     -10.691  -3.702 109.116  1.00  0.00    -0.390 OA
ATOM     11  HO  UNL     1     -10.911  -4.437 108.555  1.00  0.00     0.210 HD
ENDBRANCH   4  10
BRANCH   1  12
HETATM   12  O   UNL     1      -8.201  -6.936 112.752  1.00  0.00    -0.368 OA
ATOM     13  HO  UNL     1      -7.851  -7.797 112.555  1.00  0.00     0.212 HD
ENDBRANCH   1  12
BRANCH   3  14
HETATM   14  O   UNL     1     -12.178  -4.872 111.237  1.00  0.00    -0.390 OA
ATOM     15  HO  UNL     1     -12.811  -5.578 111.187  1.00  0.00     0.210 HD
ENDBRANCH   3  14
BRANCH   2  16
HETATM   16  O   UNL     1     -10.956  -7.250 112.244  1.00  0.00    -0.388 OA
ATOM     17  HO  UNL     1     -11.440  -7.122 113.051  1.00  0.00     0.210 HD
ENDBRANCH   2  16
TORSDOF 5
ENDMDL
MODEL 10
REMARK VINA RESULT:    -5.417      7.259      9.988
REMARK INTER + INTRA:          -6.654
REMARK INTER:                  -6.392
REMARK INTRA:                  -0.262
REMARK UNBOUND:                -0.288
REMARK  5 active torsions:
REMARK  status: ('A' for Active; 'I' for Inactive)
REMARK    1  A    between atoms: C_1  and  O_15 
REMARK    2  A    between atoms: C_2  and  O_7 
REMARK    3  A    between atoms: C_3  and  O_9 
REMARK    4  A    between atoms: C_4  and  O_11 
REMARK    5  A    between atoms: C_5  and  C_6 
ROOT
HETATM    1  C   UNL     1      -8.478  -6.226 110.084  1.00  0.00     0.289 C 
HETATM    2  C   UNL     1      -8.725  -6.405 111.573  1.00  0.00     0.204 C 
HETATM    3  C   UNL     1     -10.119  -6.074 111.949  1.00  0.00     0.183 C 
HETATM    4  C   UNL     1     -10.537  -4.722 111.457  1.00  0.00     0.189 C 
HETATM    5  C   UNL     1     -10.253  -4.567 109.966  1.00  0.00     0.256 C 
HETATM    6  O   UNL     1      -8.850  -4.845 109.638  1.00  0.00    -0.340 OA
ENDROOT
BRANCH   5   7
HETATM    7  C   UNL     1     -10.511  -3.154 109.574  1.00  0.00     0.206 C 
HETATM    8  O   UNL     1      -9.619  -2.279 109.736  1.00  0.00    -0.646 OA
HETATM    9  O   UNL     1     -11.628  -2.864 109.073  1.00  0.00    -0.646 OA
ENDBRANCH   5   7
BRANCH   4  10
HETATM   10  O   UNL     1     -11.934  -4.548 111.703  1.00  0.00    -0.390 OA
ATOM     11  HO  UNL     1     -12.351  -4.230 110.911  1.00  0.00     0.210 HD
ENDBRANCH   4  10
BRANCH   1  12
HETATM   12  O   UNL     1      -7.167  -6.435 109.808  1.00  0.00    -0.368 OA
ATOM     13  HO  UNL     1      -6.941  -6.017 108.986  1.00  0.00     0.212 HD
ENDBRANCH   1  12
BRANCH   3  14
HETATM   14  O   UNL     1     -10.235  -6.079 113.390  1.00  0.00    -0.390 OA
ATOM     15  HO  UNL     1     -10.149  -6.971 113.706  1.00  0.00     0.210 HD
ENDBRANCH   3  14
BRANCH   2  16
HETATM   16  O   UNL     1      -8.475  -7.778 111.913  1.00  0.00    -0.388 OA
ATOM     17  HO  UNL     1      -7.911  -8.153 111.248  1.00  0.00     0.210 HD
ENDBRANCH   2  16
TORSDOF 5
ENDMDL
MODEL 11
REMARK VINA RESULT:    -5.416      7.519      9.913
REMARK INTER + INTRA:          -6.654
REMARK INTER:                  -6.378
REMARK INTRA:                  -0.276
REMARK UNBOUND:                -0.288
REMARK  5 active torsions:
REMARK  status: ('A' for Active; 'I' for Inactive)
REMARK    1  A    between atoms: C_1  and  O_15 
REMARK    2  A    between atoms: C_2  and  O_7 
REMARK    3  A    between atoms: C_3  and  O_9 
REMARK    4  A    between atoms: C_4  and  O_11 
REMARK    5  A    between atoms: C_5  and  C_6 
ROOT
HETATM    1  C   UNL     1     -10.472  -6.053 111.931  1.00  0.00     0.289 C 
HETATM    2  C   UNL     1      -9.089  -6.266 111.336  1.00  0.00     0.204 C 
HETATM    3  C   UNL     1      -8.533  -5.019 110.762  1.00  0.00     0.183 C 
HETATM    4  C   UNL     1      -9.476  -4.365 109.798  1.00  0.00     0.189 C 
HETATM    5  C   UNL     1     -10.860  -4.189 110.416  1.00  0.00     0.256 C 
HETATM    6  O   UNL     1     -11.404  -5.455 110.922  1.00  0.00    -0.340 OA
ENDROOT
BRANCH   5   7
HETATM    7  C   UNL     1     -11.798  -3.712 109.362  1.00  0.00     0.206 C 
HETATM    8  O   UNL     1     -11.638  -2.576 108.841  1.00  0.00    -0.646 OA
HETATM    9  O   UNL     1     -12.736  -4.470 109.004  1.00  0.00    -0.646 OA
ENDBRANCH   5   7
BRANCH   4  10
HETATM   10  O   UNL     1      -8.949  -3.090 109.424  1.00  0.00    -0.390 OA
ATOM     11  HO  UNL     1      -8.783  -2.581 110.209  1.00  0.00     0.210 HD
ENDBRANCH   4  10
BRANCH   1  12
HETATM   12  O   UNL     1     -10.980  -7.240 112.344  1.00  0.00    -0.368 OA
ATOM     13  HO  UNL     1     -11.853  -7.357 111.988  1.00  0.00     0.212 HD
ENDBRANCH   1  12
BRANCH   3  14
HETATM   14  O   UNL     1      -7.312  -5.327 110.051  1.00  0.00    -0.390 OA
ATOM     15  HO  UNL     1      -7.530  -5.699 109.205  1.00  0.00     0.210 HD
ENDBRANCH   3  14
BRANCH   2  16
HETATM   16  O   UNL     1      -8.211  -6.717 112.380  1.00  0.00    -0.388 OA
ATOM     17  HO  UNL     1      -7.401  -6.223 112.324  1.00  0.00     0.210 HD
ENDBRANCH   2  16
TORSDOF 5
ENDMDL
MODEL 12
REMARK VINA RESULT:    -5.407      1.859      3.205
REMARK INTER + INTRA:          -6.643
REMARK INTER:                  -6.402
REMARK INTRA:                  -0.241
REMARK UNBOUND:                -0.288
REMARK  5 active torsions:
REMARK  status: ('A' for Active; 'I' for Inactive)
REMARK    1  A    between atoms: C_1  and  O_15 
REMARK    2  A    between atoms: C_2  and  O_7 
REMARK    3  A    between atoms: C_3  and  O_9 
REMARK    4  A    between atoms: C_4  and  O_11 
REMARK    5  A    between atoms: C_5  and  C_6 
ROOT
HETATM    1  C   UNL     1      -3.338  -6.330 105.278  1.00  0.00     0.289 C 
HETATM    2  C   UNL     1      -4.409  -5.743 106.185  1.00  0.00     0.204 C 
HETATM    3  C   UNL     1      -3.841  -4.800 107.177  1.00  0.00     0.183 C 
HETATM    4  C   UNL     1      -2.704  -5.400 107.947  1.00  0.00     0.189 C 
HETATM    5  C   UNL     1      -1.661  -6.002 107.010  1.00  0.00     0.256 C 
HETATM    6  O   UNL     1      -2.249  -6.973 106.080  1.00  0.00    -0.340 OA
ENDROOT
BRANCH   5   7
HETATM    7  C   UNL     1      -0.657  -6.742 107.823  1.00  0.00     0.206 C 
HETATM    8  O   UNL     1      -0.916  -7.899 108.247  1.00  0.00    -0.646 OA
HETATM    9  O   UNL     1       0.447  -6.188 108.063  1.00  0.00    -0.646 OA
ENDBRANCH   5   7
BRANCH   4  10
HETATM   10  O   UNL     1      -2.101  -4.384 108.752  1.00  0.00    -0.390 OA
ATOM     11  HO  UNL     1      -1.273  -4.707 109.088  1.00  0.00     0.210 HD
ENDBRANCH   4  10
BRANCH   1  12
HETATM   12  O   UNL     1      -3.890  -7.264 104.464  1.00  0.00    -0.368 OA
ATOM     13  HO  UNL     1      -3.281  -7.982 104.341  1.00  0.00     0.212 HD
ENDBRANCH   1  12
BRANCH   3  14
HETATM   14  O   UNL     1      -4.871  -4.428 108.120  1.00  0.00    -0.390 OA
ATOM     15  HO  UNL     1      -5.595  -5.038 108.048  1.00  0.00     0.210 HD
ENDBRANCH   3  14
BRANCH   2  16
HETATM   16  O   UNL     1      -5.353  -5.031 105.369  1.00  0.00    -0.388 OA
ATOM     17  HO  UNL     1      -5.423  -4.142 105.698  1.00  0.00     0.210 HD
ENDBRANCH   2  16
TORSDOF 5
ENDMDL
MODEL 13
REMARK VINA RESULT:    -5.364      7.951     10.335
REMARK INTER + INTRA:          -6.592
REMARK INTER:                  -6.300
REMARK INTRA:                  -0.292
REMARK UNBOUND:                -0.288
REMARK  5 active torsions:
REMARK  status: ('A' for Active; 'I' for Inactive)
REMARK    1  A    between atoms: C_1  and  O_15 
REMARK    2  A    between atoms: C_2  and  O_7 
REMARK    3  A    between atoms: C_3  and  O_9 
REMARK    4  A    between atoms: C_4  and  O_11 
REMARK    5  A    between atoms: C_5  and  C_6 
ROOT
HETATM    1  C   UNL     1     -11.153  -3.773 110.208  1.00  0.00     0.289 C 
HETATM    2  C   UNL     1     -12.269  -4.786 110.005  1.00  0.00     0.204 C 
HETATM    3  C   UNL     1     -12.250  -5.847 111.039  1.00  0.00     0.183 C 
HETATM    4  C   UNL     1     -10.904  -6.494 111.167  1.00  0.00     0.189 C 
HETATM    5  C   UNL     1      -9.806  -5.449 111.343  1.00  0.00     0.256 C 
HETATM    6  O   UNL     1      -9.818  -4.448 110.271  1.00  0.00    -0.340 OA
ENDROOT
BRANCH   5   7
HETATM    7  C   UNL     1      -8.483  -6.130 111.278  1.00  0.00     0.206 C 
HETATM    8  O   UNL     1      -8.060  -6.787 112.267  1.00  0.00    -0.646 OA
HETATM    9  O   UNL     1      -7.813  -6.041 110.217  1.00  0.00    -0.646 OA
ENDBRANCH   5   7
BRANCH   4  10
HETATM   10  O   UNL     1     -10.917  -7.375 112.293  1.00  0.00    -0.390 OA
ATOM     11  HO  UNL     1     -11.802  -7.695 112.425  1.00  0.00     0.210 HD
ENDBRANCH   4  10
BRANCH   1  12
HETATM   12  O   UNL     1     -11.146  -2.888 109.179  1.00  0.00    -0.368 OA
ATOM     13  HO  UNL     1     -11.878  -2.289 109.267  1.00  0.00     0.212 HD
ENDBRANCH   1  12
BRANCH   3  14
HETATM   14  O   UNL     1     -13.205  -6.872 110.684  1.00  0.00    -0.390 OA
ATOM     15  HO  UNL     1     -13.773  -6.544 109.997  1.00  0.00     0.210 HD
ENDBRANCH   3  14
BRANCH   2  16
HETATM   16  O   UNL     1     -13.527  -4.097 110.083  1.00  0.00    -0.388 OA
ATOM     17  HO  UNL     1     -13.811  -3.892 109.200  1.00  0.00     0.210 HD
ENDBRANCH   2  16
TORSDOF 5
ENDMDL
MODEL 14
REMARK VINA RESULT:    -5.249      7.539     10.153
REMARK INTER + INTRA:          -6.457
REMARK INTER:                  -6.174
REMARK INTRA:                  -0.284
REMARK UNBOUND:                -0.288
REMARK  5 active torsions:
REMARK  status: ('A' for Active; 'I' for Inactive)
REMARK    1  A    between atoms: C_1  and  O_15 
REMARK    2  A    between atoms: C_2  and  O_7 
REMARK    3  A    between atoms: C_3  and  O_9 
REMARK    4  A    between atoms: C_4  and  O_11 
REMARK    5  A    between atoms: C_5  and  C_6 
ROOT
HETATM    1  C   UNL     1      -8.541  -6.002 110.034  1.00  0.00     0.289 C 
HETATM    2  C   UNL     1      -8.729  -5.853 111.536  1.00  0.00     0.204 C 
HETATM    3  C   UNL     1      -9.941  -6.556 112.016  1.00  0.00     0.183 C 
HETATM    4  C   UNL     1     -11.167  -6.171 111.245  1.00  0.00     0.189 C 
HETATM    5  C   UNL     1     -10.937  -6.306 109.742  1.00  0.00     0.256 C 
HETATM    6  O   UNL     1      -9.762  -5.551 109.292  1.00  0.00    -0.340 OA
ENDROOT
BRANCH   5   7
HETATM    7  C   UNL     1     -12.112  -5.738 109.025  1.00  0.00     0.206 C 
HETATM    8  O   UNL     1     -12.826  -4.860 109.579  1.00  0.00    -0.646 OA
HETATM    9  O   UNL     1     -12.361  -6.146 107.862  1.00  0.00    -0.646 OA
ENDBRANCH   5   7
BRANCH   4  10
HETATM   10  O   UNL     1     -12.252  -7.011 111.645  1.00  0.00    -0.390 OA
ATOM     11  HO  UNL     1     -12.015  -7.918 111.489  1.00  0.00     0.210 HD
ENDBRANCH   4  10
BRANCH   1  12
HETATM   12  O   UNL     1      -7.484  -5.255 109.629  1.00  0.00    -0.368 OA
ATOM     13  HO  UNL     1      -6.927  -5.771 109.058  1.00  0.00     0.212 HD
ENDBRANCH   1  12
BRANCH   3  14
HETATM   14  O   UNL     1     -10.164  -6.220 113.404  1.00  0.00    -0.390 OA
ATOM     15  HO  UNL     1     -10.474  -6.991 113.865  1.00  0.00     0.210 HD
ENDBRANCH   3  14
BRANCH   2  16
HETATM   16  O   UNL     1      -7.584  -6.419 112.194  1.00  0.00    -0.388 OA
ATOM     17  HO  UNL     1      -7.883  -6.890 112.962  1.00  0.00     0.210 HD
ENDBRANCH   2  16
TORSDOF 5
ENDMDL
MODEL 15
REMARK VINA RESULT:    -5.182      8.713     10.050
REMARK INTER + INTRA:          -6.378
REMARK INTER:                  -6.121
REMARK INTRA:                  -0.257
REMARK UNBOUND:                -0.288
REMARK  5 active torsions:
REMARK  status: ('A' for Active; 'I' for Inactive)
REMARK    1  A    between atoms: C_1  and  O_15 
REMARK    2  A    between atoms: C_2  and  O_7 
REMARK    3  A    between atoms: C_3  and  O_9 
REMARK    4  A    between atoms: C_4  and  O_11 
REMARK    5  A    between atoms: C_5  and  C_6 
ROOT
HETATM    1  C   UNL     1     -12.335  -4.877 109.414  1.00  0.00     0.289 C 
HETATM    2  C   UNL     1     -11.774  -3.465 109.477  1.00  0.00     0.204 C 
HETATM    3  C   UNL     1     -10.295  -3.459 109.570  1.00  0.00     0.183 C 
HETATM    4  C   UNL     1      -9.791  -4.326 110.683  1.00  0.00     0.189 C 
HETATM    5  C   UNL     1     -10.392  -5.727 110.605  1.00  0.00     0.256 C 
HETATM    6  O   UNL     1     -11.859  -5.697 110.573  1.00  0.00    -0.340 OA
ENDROOT
BRANCH   5   7
HETATM    7  C   UNL     1     -10.006  -6.482 111.829  1.00  0.00     0.206 C 
HETATM    8  O   UNL     1      -8.790  -6.636 112.120  1.00  0.00    -0.646 OA
HETATM    9  O   UNL     1     -10.918  -6.947 112.561  1.00  0.00    -0.646 OA
ENDBRANCH   5   7
BRANCH   4  10
HETATM   10  O   UNL     1      -8.366  -4.408 110.600  1.00  0.00    -0.390 OA
ATOM     11  HO  UNL     1      -8.062  -5.105 111.169  1.00  0.00     0.210 HD
ENDBRANCH   4  10
BRANCH   1  12
HETATM   12  O   UNL     1     -13.691  -4.832 109.439  1.00  0.00    -0.368 OA
ATOM     13  HO  UNL     1     -13.992  -4.728 110.334  1.00  0.00     0.212 HD
ENDBRANCH   1  12
BRANCH   3  14
HETATM   14  O   UNL     1      -9.842  -2.109 109.817  1.00  0.00    -0.390 OA
ATOM     15  HO  UNL     1     -10.581  -1.576 110.085  1.00  0.00     0.210 HD
ENDBRANCH   3  14
BRANCH   2  16
HETATM   16  O   UNL     1     -12.157  -2.770 108.280  1.00  0.00    -0.388 OA
ATOM     17  HO  UNL     1     -13.030  -3.054 108.036  1.00  0.00     0.210 HD
ENDBRANCH   2  16
TORSDOF 5
ENDMDL
MODEL 16
REMARK VINA RESULT:    -5.151      2.177      5.546
REMARK INTER + INTRA:          -6.342
REMARK INTER:                  -6.051
REMARK INTRA:                  -0.291
REMARK UNBOUND:                -0.288
REMARK  5 active torsions:
REMARK  status: ('A' for Active; 'I' for Inactive)
REMARK    1  A    between atoms: C_1  and  O_15 
REMARK    2  A    between atoms: C_2  and  O_7 
REMARK    3  A    between atoms: C_3  and  O_9 
REMARK    4  A    between atoms: C_4  and  O_11 
REMARK    5  A    between atoms: C_5  and  C_6 
ROOT
HETATM    1  C   UNL     1      -2.008  -4.148 107.480  1.00  0.00     0.289 C 
HETATM    2  C   UNL     1      -2.792  -5.281 108.123  1.00  0.00     0.204 C 
HETATM    3  C   UNL     1      -4.124  -5.459 107.498  1.00  0.00     0.183 C 
HETATM    4  C   UNL     1      -4.904  -4.181 107.445  1.00  0.00     0.189 C 
HETATM    5  C   UNL     1      -4.080  -3.059 106.818  1.00  0.00     0.256 C 
HETATM    6  O   UNL     1      -2.793  -2.873 107.498  1.00  0.00    -0.340 OA
ENDROOT
BRANCH   5   7
HETATM    7  C   UNL     1      -4.828  -1.779 106.960  1.00  0.00     0.206 C 
HETATM    8  O   UNL     1      -4.532  -0.790 106.238  1.00  0.00    -0.646 OA
HETATM    9  O   UNL     1      -5.759  -1.718 107.804  1.00  0.00    -0.646 OA
ENDBRANCH   5   7
BRANCH   4  10
HETATM   10  O   UNL     1      -6.092  -4.392 106.679  1.00  0.00    -0.390 OA
ATOM     11  HO  UNL     1      -5.940  -5.095 106.059  1.00  0.00     0.210 HD
ENDBRANCH   4  10
BRANCH   1  12
HETATM   12  O   UNL     1      -0.847  -3.955 108.153  1.00  0.00    -0.368 OA
ATOM     13  HO  UNL     1      -0.392  -3.200 107.799  1.00  0.00     0.212 HD
ENDBRANCH   1  12
BRANCH   3  14
HETATM   14  O   UNL     1      -4.886  -6.414 108.271  1.00  0.00    -0.390 OA
ATOM     15  HO  UNL     1      -4.294  -6.911 108.823  1.00  0.00     0.210 HD
ENDBRANCH   3  14
BRANCH   2  16
HETATM   16  O   UNL     1      -2.047  -6.498 107.959  1.00  0.00    -0.388 OA
ATOM     17  HO  UNL     1      -2.633  -7.231 108.108  1.00  0.00     0.210 HD
ENDBRANCH   2  16
TORSDOF 5
ENDMDL
MODEL 17
REMARK VINA RESULT:    -5.139      6.686      8.891
REMARK INTER + INTRA:          -6.327
REMARK INTER:                  -6.048
REMARK INTRA:                  -0.279
REMARK UNBOUND:                -0.288
REMARK  5 active torsions:
REMARK  status: ('A' for Active; 'I' for Inactive)
REMARK    1  A    between atoms: C_1  and  O_15 
REMARK    2  A    between atoms: C_2  and  O_7 
REMARK    3  A    between atoms: C_3  and  O_9 
REMARK    4  A    between atoms: C_4  and  O_11 
REMARK    5  A    between atoms: C_5  and  C_6 
ROOT
HETATM    1  C   UNL     1      -9.816  -6.346 111.822  1.00  0.00     0.289 C 
HETATM    2  C   UNL     1      -8.721  -7.176 111.172  1.00  0.00     0.204 C 
HETATM    3  C   UNL     1      -7.608  -6.334 110.674  1.00  0.00     0.183 C 
HETATM    4  C   UNL     1      -8.085  -5.222 109.791  1.00  0.00     0.189 C 
HETATM    5  C   UNL     1      -9.200  -4.425 110.462  1.00  0.00     0.256 C 
HETATM    6  O   UNL     1     -10.311  -5.283 110.890  1.00  0.00    -0.340 OA
ENDROOT
BRANCH   5   7
HETATM    7  C   UNL     1      -9.760  -3.460 109.476  1.00  0.00     0.206 C 
HETATM    8  O   UNL     1     -10.226  -2.357 109.865  1.00  0.00    -0.646 OA
HETATM    9  O   UNL     1      -9.744  -3.770 108.257  1.00  0.00    -0.646 OA
ENDBRANCH   5   7
BRANCH   4  10
HETATM   10  O   UNL     1      -6.985  -4.358 109.495  1.00  0.00    -0.390 OA
ATOM     11  HO  UNL     1      -6.258  -4.576 110.066  1.00  0.00     0.210 HD
ENDBRANCH   4  10
BRANCH   1  12
HETATM   12  O   UNL     1     -10.857  -7.147 112.163  1.00  0.00    -0.368 OA
ATOM     13  HO  UNL     1     -11.575  -6.618 112.489  1.00  0.00     0.212 HD
ENDBRANCH   1  12
BRANCH   3  14
HETATM   14  O   UNL     1      -6.700  -7.156 109.905  1.00  0.00    -0.390 OA
ATOM     15  HO  UNL     1      -5.880  -7.239 110.377  1.00  0.00     0.210 HD
ENDBRANCH   3  14
BRANCH   2  16
HETATM   16  O   UNL     1      -8.199  -8.087 112.152  1.00  0.00    -0.388 OA
ATOM     17  HO  UNL     1      -7.387  -7.730 112.490  1.00  0.00     0.210 HD
ENDBRANCH   2  16
TORSDOF 5
ENDMDL
MODEL 18
REMARK VINA RESULT:    -5.092      9.149     11.505
REMARK INTER + INTRA:          -6.272
REMARK INTER:                  -6.013
REMARK INTRA:                  -0.259
REMARK UNBOUND:                -0.288
REMARK  5 active torsions:
REMARK  status: ('A' for Active; 'I' for Inactive)
REMARK    1  A    between atoms: C_1  and  O_15 
REMARK    2  A    between atoms: C_2  and  O_7 
REMARK    3  A    between atoms: C_3  and  O_9 
REMARK    4  A    between atoms: C_4  and  O_11 
REMARK    5  A    between atoms: C_5  and  C_6 
ROOT
HETATM    1  C   UNL     1     -10.025  -5.554 110.597  1.00  0.00     0.289 C 
HETATM    2  C   UNL     1     -11.031  -6.282 111.475  1.00  0.00     0.204 C 
HETATM    3  C   UNL     1     -12.213  -6.737 110.706  1.00  0.00     0.183 C 
HETATM    4  C   UNL     1     -12.839  -5.628 109.915  1.00  0.00     0.189 C 
HETATM    5  C   UNL     1     -11.799  -4.903 109.066  1.00  0.00     0.256 C 
HETATM    6  O   UNL     1     -10.671  -4.416 109.868  1.00  0.00    -0.340 OA
ENDROOT
BRANCH   5   7
HETATM    7  C   UNL     1     -12.435  -3.705 108.451  1.00  0.00     0.206 C 
HETATM    8  O   UNL     1     -12.006  -2.552 108.723  1.00  0.00    -0.646 OA
HETATM    9  O   UNL     1     -13.394  -3.875 107.655  1.00  0.00    -0.646 OA
ENDBRANCH   5   7
BRANCH   4  10
HETATM   10  O   UNL     1     -13.855  -6.175 109.072  1.00  0.00    -0.390 OA
ATOM     11  HO  UNL     1     -13.505  -6.284 108.196  1.00  0.00     0.210 HD
ENDBRANCH   4  10
BRANCH   1  12
HETATM   12  O   UNL     1      -9.017  -5.066 111.363  1.00  0.00    -0.368 OA
ATOM     13  HO  UNL     1      -8.216  -5.031 110.855  1.00  0.00     0.212 HD
ENDBRANCH   1  12
BRANCH   3  14
HETATM   14  O   UNL     1     -13.207  -7.246 111.623  1.00  0.00    -0.390 OA
ATOM     15  HO  UNL     1     -14.031  -7.349 111.163  1.00  0.00     0.210 HD
ENDBRANCH   3  14
BRANCH   2  16
HETATM   16  O   UNL     1     -10.387  -7.434 112.043  1.00  0.00    -0.388 OA
ATOM     17  HO  UNL     1      -9.957  -7.171 112.848  1.00  0.00     0.210 HD
ENDBRANCH   2  16
TORSDOF 5
ENDMDL
MODEL 19
REMARK VINA RESULT:    -5.070      7.492      9.795
REMARK INTER + INTRA:          -6.246
REMARK INTER:                  -5.957
REMARK INTRA:                  -0.290
REMARK UNBOUND:                -0.288
REMARK  5 active torsions:
REMARK  status: ('A' for Active; 'I' for Inactive)
REMARK    1  A    between atoms: C_1  and  O_15 
REMARK    2  A    between atoms: C_2  and  O_7 
REMARK    3  A    between atoms: C_3  and  O_9 
REMARK    4  A    between atoms: C_4  and  O_11 
REMARK    5  A    between atoms: C_5  and  C_6 
ROOT
HETATM    1  C   UNL     1      -8.564  -5.662 111.325  1.00  0.00     0.289 C 
HETATM    2  C   UNL     1      -8.376  -4.660 110.196  1.00  0.00     0.204 C 
HETATM    3  C   UNL     1      -9.581  -3.823 109.991  1.00  0.00     0.183 C 
HETATM    4  C   UNL     1     -10.824  -4.644 109.827  1.00  0.00     0.189 C 
HETATM    5  C   UNL     1     -10.969  -5.656 110.961  1.00  0.00     0.256 C 
HETATM    6  O   UNL     1      -9.781  -6.506 111.098  1.00  0.00    -0.340 OA
ENDROOT
BRANCH   5   7
HETATM    7  C   UNL     1     -12.109  -6.561 110.651  1.00  0.00     0.206 C 
HETATM    8  O   UNL     1     -12.551  -6.642 109.474  1.00  0.00    -0.646 OA
HETATM    9  O   UNL     1     -12.606  -7.243 111.584  1.00  0.00    -0.646 OA
ENDBRANCH   5   7
BRANCH   4  10
HETATM   10  O   UNL     1     -11.957  -3.773 109.809  1.00  0.00    -0.390 OA
ATOM     11  HO  UNL     1     -12.370  -3.785 110.665  1.00  0.00     0.210 HD
ENDBRANCH   4  10
BRANCH   1  12
HETATM   12  O   UNL     1      -7.479  -6.473 111.402  1.00  0.00    -0.368 OA
ATOM     13  HO  UNL     1      -6.748  -5.997 111.777  1.00  0.00     0.212 HD
ENDBRANCH   1  12
BRANCH   3  14
HETATM   14  O   UNL     1      -9.409  -3.032 108.794  1.00  0.00    -0.390 OA
ATOM     15  HO  UNL     1     -10.093  -2.374 108.755  1.00  0.00     0.210 HD
ENDBRANCH   3  14
BRANCH   2  16
HETATM   16  O   UNL     1      -7.276  -3.800 110.532  1.00  0.00    -0.388 OA
ATOM     17  HO  UNL     1      -7.121  -3.863 111.467  1.00  0.00     0.210 HD
ENDBRANCH   2  16
TORSDOF 5
ENDMDL
MODEL 20
REMARK VINA RESULT:    -5.044      7.542      9.989
REMARK INTER + INTRA:          -6.216
REMARK INTER:                  -5.949
REMARK INTRA:                  -0.268
REMARK UNBOUND:                -0.288
REMARK  5 active torsions:
REMARK  status: ('A' for Active; 'I' for Inactive)
REMARK    1  A    between atoms: C_1  and  O_15 
REMARK    2  A    between atoms: C_2  and  O_7 
REMARK    3  A    between atoms: C_3  and  O_9 
REMARK    4  A    between atoms: C_4  and  O_11 
REMARK    5  A    between atoms: C_5  and  C_6 
ROOT
HETATM    1  C   UNL     1      -8.605  -4.116 110.140  1.00  0.00     0.289 C 
HETATM    2  C   UNL     1      -9.402  -4.231 108.850  1.00  0.00     0.204 C 
HETATM    3  C   UNL     1     -10.862  -4.177 109.092  1.00  0.00     0.183 C 
HETATM    4  C   UNL     1     -11.305  -5.164 110.129  1.00  0.00     0.189 C 
HETATM    5  C   UNL     1     -10.469  -5.040 111.400  1.00  0.00     0.256 C 
HETATM    6  O   UNL     1      -9.032  -5.156 111.131  1.00  0.00    -0.340 OA
ENDROOT
BRANCH   5   7
HETATM    7  C   UNL     1     -10.824  -6.158 112.317  1.00  0.00     0.206 C 
HETATM    8  O   UNL     1     -10.323  -6.212 113.472  1.00  0.00    -0.646 OA
HETATM    9  O   UNL     1     -11.636  -7.031 111.915  1.00  0.00    -0.646 OA
ENDBRANCH   5   7
BRANCH   4  10
HETATM   10  O   UNL     1     -12.683  -4.935 110.432  1.00  0.00    -0.390 OA
ATOM     11  HO  UNL     1     -12.834  -3.999 110.496  1.00  0.00     0.210 HD
ENDBRANCH   4  10
BRANCH   1  12
HETATM   12  O   UNL     1      -7.284  -4.279 109.879  1.00  0.00    -0.368 OA
ATOM     13  HO  UNL     1      -6.801  -4.342 110.694  1.00  0.00     0.212 HD
ENDBRANCH   1  12
BRANCH   3  14
HETATM   14  O   UNL     1     -11.558  -4.481 107.862  1.00  0.00    -0.390 OA
ATOM     15  HO  UNL     1     -10.944  -4.856 107.242  1.00  0.00     0.210 HD
ENDBRANCH   3  14
BRANCH   2  16
HETATM   16  O   UNL     1      -9.041  -3.134 107.996  1.00  0.00    -0.388 OA
ATOM     17  HO  UNL     1      -8.699  -2.432 108.537  1.00  0.00     0.210 HD
ENDBRANCH   2  16
TORSDOF 5
ENDMDL
