MODEL 1
REMARK VINA RESULT:    -3.577      0.000      0.000
REMARK INTER + INTRA:          -3.786
REMARK INTER:                  -3.786
REMARK INTRA:                   0.000
REMARK UNBOUND:                 0.000
REMARK  1 active torsions:
REMARK  status: ('A' for Active; 'I' for Inactive)
REMARK    1  A    between atoms: C_4  and  S_6 
ROOT
HETATM    1  C   UNL     1      20.981  32.076  -9.929  1.00  0.00     0.161 C 
HETATM    2  O   UNL     1      20.667  34.124  -8.408  1.00  0.00    -0.228 OA
HETATM    3  O   UNL     1      20.142  31.940  -7.502  1.00  0.00    -0.228 OA
HETATM    4  S   UNL     1      20.140  32.822  -8.603  1.00  0.00     0.140 S 
ENDROOT
BRANCH   4   5
HETATM    5  C   UNL     1      18.484  32.973  -9.172  1.00  0.00     0.135 C 
HETATM    6  C   UNL     1      18.539  33.335 -10.613  1.00  0.00     0.021 C 
ENDBRANCH   4   5
TORSDOF 1
ENDMDL
MODEL 2
REMARK VINA RESULT:    -3.562      2.134      2.501
REMARK INTER + INTRA:          -3.770
REMARK INTER:                  -3.770
REMARK INTRA:                   0.000
REMARK UNBOUND:                 0.000
REMARK  1 active torsions:
REMARK  status: ('A' for Active; 'I' for Inactive)
REMARK    1  A    between atoms: C_4  and  S_6 
ROOT
HETATM    1  C   UNL     1      19.915  31.460  -9.230  1.00  0.00     0.161 C 
HETATM    2  O   UNL     1      20.436  31.263  -6.720  1.00  0.00    -0.228 OA
HETATM    3  O   UNL     1      19.237  29.445  -7.782  1.00  0.00    -0.228 OA
HETATM    4  S   UNL     1      19.474  30.832  -7.669  1.00  0.00     0.140 S 
ENDROOT
BRANCH   4   5
HETATM    5  C   UNL     1      17.944  31.614  -7.304  1.00  0.00     0.135 C 
HETATM    6  C   UNL     1      17.765  32.722  -8.281  1.00  0.00     0.021 C 
ENDBRANCH   4   5
TORSDOF 1
ENDMDL
MODEL 3
REMARK VINA RESULT:    -3.490      1.961      3.014
REMARK INTER + INTRA:          -3.694
REMARK INTER:                  -3.694
REMARK INTRA:                   0.000
REMARK UNBOUND:                 0.000
REMARK  1 active torsions:
REMARK  status: ('A' for Active; 'I' for Inactive)
REMARK    1  A    between atoms: C_4  and  S_6 
ROOT
HETATM    1  C   UNL     1      17.937  31.501  -7.111  1.00  0.00     0.161 C 
HETATM    2  O   UNL     1      19.282  29.426  -7.815  1.00  0.00    -0.228 OA
HETATM    3  O   UNL     1      20.463  31.231  -6.711  1.00  0.00    -0.228 OA
HETATM    4  S   UNL     1      19.456  30.819  -7.611  1.00  0.00     0.140 S 
ENDROOT
BRANCH   4   5
HETATM    5  C   UNL     1      19.778  31.572  -9.165  1.00  0.00     0.135 C 
HETATM    6  C   UNL     1      18.914  32.779  -9.263  1.00  0.00     0.021 C 
ENDBRANCH   4   5
TORSDOF 1
ENDMDL
MODEL 4
REMARK VINA RESULT:    -3.469      0.839      2.615
REMARK INTER + INTRA:          -3.671
REMARK INTER:                  -3.671
REMARK INTRA:                   0.000
REMARK UNBOUND:                 0.000
REMARK  1 active torsions:
REMARK  status: ('A' for Active; 'I' for Inactive)
REMARK    1  A    between atoms: C_4  and  S_6 
ROOT
HETATM    1  C   UNL     1      18.268  33.049  -8.890  1.00  0.00     0.161 C 
HETATM    2  O   UNL     1      20.233  32.079  -7.546  1.00  0.00    -0.228 OA
HETATM    3  O   UNL     1      20.658  33.994  -8.966  1.00  0.00    -0.228 OA
HETATM    4  S   UNL     1      19.980  32.775  -8.755  1.00  0.00     0.140 S 
ENDROOT
BRANCH   4   5
HETATM    5  C   UNL     1      20.354  31.707 -10.099  1.00  0.00     0.135 C 
HETATM    6  C   UNL     1      21.835  31.644 -10.219  1.00  0.00     0.021 C 
ENDBRANCH   4   5
TORSDOF 1
ENDMDL
MODEL 5
REMARK VINA RESULT:    -3.433      2.721      3.481
REMARK INTER + INTRA:          -3.633
REMARK INTER:                  -3.633
REMARK INTRA:                   0.000
REMARK UNBOUND:                 0.000
REMARK  1 active torsions:
REMARK  status: ('A' for Active; 'I' for Inactive)
REMARK    1  A    between atoms: C_4  and  S_6 
ROOT
HETATM    1  C   UNL     1      18.957  30.304  -5.251  1.00  0.00     0.161 C 
HETATM    2  O   UNL     1      19.274  29.402  -7.638  1.00  0.00    -0.228 OA
HETATM    3  O   UNL     1      20.575  31.332  -6.965  1.00  0.00    -0.228 OA
HETATM    4  S   UNL     1      19.358  30.619  -6.913  1.00  0.00     0.140 S 
ENDROOT
BRANCH   4   5
HETATM    5  C   UNL     1      18.081  31.687  -7.472  1.00  0.00     0.135 C 
HETATM    6  C   UNL     1      18.648  32.531  -8.558  1.00  0.00     0.021 C 
ENDBRANCH   4   5
TORSDOF 1
ENDMDL
MODEL 6
REMARK VINA RESULT:    -3.369      1.511      2.082
REMARK INTER + INTRA:          -3.566
REMARK INTER:                  -3.566
REMARK INTRA:                   0.000
REMARK UNBOUND:                 0.000
REMARK  1 active torsions:
REMARK  status: ('A' for Active; 'I' for Inactive)
REMARK    1  A    between atoms: C_4  and  S_6 
ROOT
HETATM    1  C   UNL     1      20.723  33.817  -9.163  1.00  0.00     0.161 C 
HETATM    2  O   UNL     1      19.937  32.030  -7.490  1.00  0.00    -0.228 OA
HETATM    3  O   UNL     1      19.849  31.499  -9.852  1.00  0.00    -0.228 OA
HETATM    4  S   UNL     1      19.700  32.453  -8.823  1.00  0.00     0.140 S 
ENDROOT
BRANCH   4   5
HETATM    5  C   UNL     1      18.070  33.101  -8.918  1.00  0.00     0.135 C 
HETATM    6  C   UNL     1      17.282  32.493  -7.813  1.00  0.00     0.021 C 
ENDBRANCH   4   5
TORSDOF 1
ENDMDL
MODEL 7
REMARK VINA RESULT:    -3.290      1.810      2.232
REMARK INTER + INTRA:          -3.482
REMARK INTER:                  -3.482
REMARK INTRA:                   0.000
REMARK UNBOUND:                 0.000
REMARK  1 active torsions:
REMARK  status: ('A' for Active; 'I' for Inactive)
REMARK    1  A    between atoms: C_4  and  S_6 
ROOT
HETATM    1  C   UNL     1      20.038  31.595  -9.975  1.00  0.00     0.161 C 
HETATM    2  O   UNL     1      18.201  33.386  -9.802  1.00  0.00    -0.228 OA
HETATM    3  O   UNL     1      20.137  33.594  -8.360  1.00  0.00    -0.228 OA
HETATM    4  S   UNL     1      19.194  32.763  -9.002  1.00  0.00     0.140 S 
ENDROOT
BRANCH   4   5
HETATM    5  C   UNL     1      18.392  31.802  -7.770  1.00  0.00     0.135 C 
HETATM    6  C   UNL     1      17.012  32.335  -7.616  1.00  0.00     0.021 C 
ENDBRANCH   4   5
TORSDOF 1
ENDMDL
MODEL 8
REMARK VINA RESULT:    -3.278      3.894      4.659
REMARK INTER + INTRA:          -3.469
REMARK INTER:                  -3.469
REMARK INTRA:                   0.000
REMARK UNBOUND:                 0.000
REMARK  1 active torsions:
REMARK  status: ('A' for Active; 'I' for Inactive)
REMARK    1  A    between atoms: C_4  and  S_6 
ROOT
HETATM    1  C   UNL     1      17.679  31.352  -7.153  1.00  0.00     0.161 C 
HETATM    2  O   UNL     1      20.045  31.043  -6.193  1.00  0.00    -0.228 OA
HETATM    3  O   UNL     1      19.205  29.361  -7.721  1.00  0.00    -0.228 OA
HETATM    4  S   UNL     1      18.955  30.272  -6.672  1.00  0.00     0.140 S 
ENDROOT
BRANCH   4   5
HETATM    5  C   UNL     1      18.276  29.373  -5.324  1.00  0.00     0.135 C 
HETATM    6  C   UNL     1      17.482  28.250  -5.892  1.00  0.00     0.021 C 
ENDBRANCH   4   5
TORSDOF 1
ENDMDL
MODEL 9
REMARK VINA RESULT:    -3.225      1.694      2.006
REMARK INTER + INTRA:          -3.414
REMARK INTER:                  -3.414
REMARK INTRA:                   0.000
REMARK UNBOUND:                 0.000
REMARK  1 active torsions:
REMARK  status: ('A' for Active; 'I' for Inactive)
REMARK    1  A    between atoms: C_4  and  S_6 
ROOT
HETATM    1  C   UNL     1      19.007  33.363 -10.925  1.00  0.00     0.161 C 
HETATM    2  O   UNL     1      21.020  33.852  -9.402  1.00  0.00    -0.228 OA
HETATM    3  O   UNL     1      20.794  31.618 -10.312  1.00  0.00    -0.228 OA
HETATM    4  S   UNL     1      20.181  32.775  -9.784  1.00  0.00     0.140 S 
ENDROOT
BRANCH   4   5
HETATM    5  C   UNL     1      19.225  32.293  -8.391  1.00  0.00     0.135 C 
HETATM    6  C   UNL     1      17.895  32.946  -8.515  1.00  0.00     0.021 C 
ENDBRANCH   4   5
TORSDOF 1
ENDMDL
MODEL 10
REMARK VINA RESULT:    -3.202      2.886      3.384
REMARK INTER + INTRA:          -3.390
REMARK INTER:                  -3.390
REMARK INTRA:                   0.000
REMARK UNBOUND:                 0.000
REMARK  1 active torsions:
REMARK  status: ('A' for Active; 'I' for Inactive)
REMARK    1  A    between atoms: C_4  and  S_6 
ROOT
HETATM    1  C   UNL     1      20.654  31.171  -8.416  1.00  0.00     0.161 C 
HETATM    2  O   UNL     1      18.325  31.929  -7.634  1.00  0.00    -0.228 OA
HETATM    3  O   UNL     1      19.888  31.137  -5.962  1.00  0.00    -0.228 OA
HETATM    4  S   UNL     1      19.358  31.030  -7.265  1.00  0.00     0.140 S 
ENDROOT
BRANCH   4   5
HETATM    5  C   UNL     1      18.768  29.389  -7.477  1.00  0.00     0.135 C 
HETATM    6  C   UNL     1      17.353  29.362  -7.021  1.00  0.00     0.021 C 
ENDBRANCH   4   5
TORSDOF 1
ENDMDL
MODEL 11
REMARK VINA RESULT:    -3.133      5.059      5.521
REMARK INTER + INTRA:          -3.316
REMARK INTER:                  -3.316
REMARK INTRA:                   0.000
REMARK UNBOUND:                 0.000
REMARK  1 active torsions:
REMARK  status: ('A' for Active; 'I' for Inactive)
REMARK    1  A    between atoms: C_4  and  S_6 
ROOT
HETATM    1  C   UNL     1      19.730  28.680  -3.833  1.00  0.00     0.161 C 
HETATM    2  O   UNL     1      19.414  30.859  -5.161  1.00  0.00    -0.228 OA
HETATM    3  O   UNL     1      17.448  29.800  -4.223  1.00  0.00    -0.228 OA
HETATM    4  S   UNL     1      18.712  29.670  -4.837  1.00  0.00     0.140 S 
ENDROOT
BRANCH   4   5
HETATM    5  C   UNL     1      18.505  28.729  -6.306  1.00  0.00     0.135 C 
HETATM    6  C   UNL     1      17.144  29.016  -6.832  1.00  0.00     0.021 C 
ENDBRANCH   4   5
TORSDOF 1
ENDMDL
MODEL 12
REMARK VINA RESULT:    -3.043     10.276     10.829
REMARK INTER + INTRA:          -3.221
REMARK INTER:                  -3.221
REMARK INTRA:                   0.000
REMARK UNBOUND:                 0.000
REMARK  1 active torsions:
REMARK  status: ('A' for Active; 'I' for Inactive)
REMARK    1  A    between atoms: C_4  and  S_6 
ROOT
HETATM    1  C   UNL     1      20.167  23.910  -3.134  1.00  0.00     0.161 C 
HETATM    2  O   UNL     1      17.856  22.802  -3.334  1.00  0.00    -0.228 OA
HETATM    3  O   UNL     1      19.745  21.697  -4.373  1.00  0.00    -0.228 OA
HETATM    4  S   UNL     1      19.083  22.897  -4.040  1.00  0.00     0.140 S 
ENDROOT
BRANCH   4   5
HETATM    5  C   UNL     1      18.800  23.789  -5.527  1.00  0.00     0.135 C 
HETATM    6  C   UNL     1      18.779  25.235  -5.183  1.00  0.00     0.021 C 
ENDBRANCH   4   5
TORSDOF 1
ENDMDL
MODEL 13
REMARK VINA RESULT:    -3.026      1.710      1.992
REMARK INTER + INTRA:          -3.203
REMARK INTER:                  -3.203
REMARK INTRA:                   0.000
REMARK UNBOUND:                 0.000
REMARK  1 active torsions:
REMARK  status: ('A' for Active; 'I' for Inactive)
REMARK    1  A    between atoms: C_4  and  S_6 
ROOT
HETATM    1  C   UNL     1      19.545  30.862  -8.248  1.00  0.00     0.161 C 
HETATM    2  O   UNL     1      20.706  31.893 -10.297  1.00  0.00    -0.228 OA
HETATM    3  O   UNL     1      20.608  33.203  -8.261  1.00  0.00    -0.228 OA
HETATM    4  S   UNL     1      19.989  32.288  -9.138  1.00  0.00     0.140 S 
ENDROOT
BRANCH   4   5
HETATM    5  C   UNL     1      18.454  32.978  -9.644  1.00  0.00     0.135 C 
HETATM    6  C   UNL     1      17.591  33.078  -8.437  1.00  0.00     0.021 C 
ENDBRANCH   4   5
TORSDOF 1
ENDMDL
MODEL 14
REMARK VINA RESULT:    -2.966      6.077      6.720
REMARK INTER + INTRA:          -3.139
REMARK INTER:                  -3.139
REMARK INTRA:                   0.000
REMARK UNBOUND:                 0.000
REMARK  1 active torsions:
REMARK  status: ('A' for Active; 'I' for Inactive)
REMARK    1  A    between atoms: C_4  and  S_6 
ROOT
HETATM    1  C   UNL     1      18.967  30.035  -4.770  1.00  0.00     0.161 C 
HETATM    2  O   UNL     1      18.733  28.464  -6.792  1.00  0.00    -0.228 OA
HETATM    3  O   UNL     1      16.950  28.485  -5.151  1.00  0.00    -0.228 OA
HETATM    4  S   UNL     1      18.331  28.559  -5.435  1.00  0.00     0.140 S 
ENDROOT
BRANCH   4   5
HETATM    5  C   UNL     1      19.139  27.291  -4.527  1.00  0.00     0.135 C 
HETATM    6  C   UNL     1      18.723  25.989  -5.112  1.00  0.00     0.021 C 
ENDBRANCH   4   5
TORSDOF 1
ENDMDL
MODEL 15
REMARK VINA RESULT:    -2.945      5.283      5.750
REMARK INTER + INTRA:          -3.117
REMARK INTER:                  -3.117
REMARK INTRA:                   0.000
REMARK UNBOUND:                 0.000
REMARK  1 active torsions:
REMARK  status: ('A' for Active; 'I' for Inactive)
REMARK    1  A    between atoms: C_4  and  S_6 
ROOT
HETATM    1  C   UNL     1      19.115  29.243  -4.477  1.00  0.00     0.161 C 
HETATM    2  O   UNL     1      16.800  28.497  -5.313  1.00  0.00    -0.228 OA
HETATM    3  O   UNL     1      18.713  27.119  -5.871  1.00  0.00    -0.228 OA
HETATM    4  S   UNL     1      18.169  28.406  -5.673  1.00  0.00     0.140 S 
ENDROOT
BRANCH   4   5
HETATM    5  C   UNL     1      18.418  29.331  -7.146  1.00  0.00     0.135 C 
HETATM    6  C   UNL     1      19.425  30.384  -6.847  1.00  0.00     0.021 C 
ENDBRANCH   4   5
TORSDOF 1
ENDMDL
MODEL 16
REMARK VINA RESULT:    -2.924      8.880      9.155
REMARK INTER + INTRA:          -3.095
REMARK INTER:                  -3.095
REMARK INTRA:                   0.000
REMARK UNBOUND:                 0.000
REMARK  1 active torsions:
REMARK  status: ('A' for Active; 'I' for Inactive)
REMARK    1  A    between atoms: C_4  and  S_6 
ROOT
HETATM    1  C   UNL     1      19.610  34.333 -19.463  1.00  0.00     0.161 C 
HETATM    2  O   UNL     1      19.542  35.578 -17.214  1.00  0.00    -0.228 OA
HETATM    3  O   UNL     1      18.963  33.225 -17.234  1.00  0.00    -0.228 OA
HETATM    4  S   UNL     1      18.924  34.484 -17.872  1.00  0.00     0.140 S 
ENDROOT
BRANCH   4   5
HETATM    5  C   UNL     1      17.240  34.890 -18.164  1.00  0.00     0.135 C 
HETATM    6  C   UNL     1      16.788  35.752 -17.039  1.00  0.00     0.021 C 
ENDBRANCH   4   5
TORSDOF 1
ENDMDL
MODEL 17
REMARK VINA RESULT:    -2.915      8.981      9.662
REMARK INTER + INTRA:          -3.085
REMARK INTER:                  -3.085
REMARK INTRA:                   0.000
REMARK UNBOUND:                 0.000
REMARK  1 active torsions:
REMARK  status: ('A' for Active; 'I' for Inactive)
REMARK    1  A    between atoms: C_4  and  S_6 
ROOT
HETATM    1  C   UNL     1      20.262  25.913  -3.546  1.00  0.00     0.161 C 
HETATM    2  O   UNL     1      18.646  26.100  -5.537  1.00  0.00    -0.228 OA
HETATM    3  O   UNL     1      17.932  24.826  -3.604  1.00  0.00    -0.228 OA
HETATM    4  S   UNL     1      18.970  25.215  -4.477  1.00  0.00     0.140 S 
ENDROOT
BRANCH   4   5
HETATM    5  C   UNL     1      19.672  23.758  -5.165  1.00  0.00     0.135 C 
HETATM    6  C   UNL     1      19.208  22.609  -4.344  1.00  0.00     0.021 C 
ENDBRANCH   4   5
TORSDOF 1
ENDMDL
MODEL 18
REMARK VINA RESULT:    -2.854      8.635      9.119
REMARK INTER + INTRA:          -3.021
REMARK INTER:                  -3.021
REMARK INTRA:                   0.000
REMARK UNBOUND:                 0.000
REMARK  1 active torsions:
REMARK  status: ('A' for Active; 'I' for Inactive)
REMARK    1  A    between atoms: C_4  and  S_6 
ROOT
HETATM    1  C   UNL     1      20.144  34.682 -18.743  1.00  0.00     0.161 C 
HETATM    2  O   UNL     1      20.417  32.440 -17.514  1.00  0.00    -0.228 OA
HETATM    3  O   UNL     1      18.550  32.686 -19.038  1.00  0.00    -0.228 OA
HETATM    4  S   UNL     1      19.402  33.260 -18.071  1.00  0.00     0.140 S 
ENDROOT
BRANCH   4   5
HETATM    5  C   UNL     1      18.402  33.871 -16.762  1.00  0.00     0.135 C 
HETATM    6  C   UNL     1      18.406  35.355 -16.854  1.00  0.00     0.021 C 
ENDBRANCH   4   5
TORSDOF 1
ENDMDL
MODEL 19
REMARK VINA RESULT:    -2.833      4.741      5.599
REMARK INTER + INTRA:          -2.999
REMARK INTER:                  -2.999
REMARK INTRA:                   0.000
REMARK UNBOUND:                 0.000
REMARK  1 active torsions:
REMARK  status: ('A' for Active; 'I' for Inactive)
REMARK    1  A    between atoms: C_4  and  S_6 
ROOT
HETATM    1  C   UNL     1      17.477  31.097  -6.849  1.00  0.00     0.161 C 
HETATM    2  O   UNL     1      17.019  29.923  -4.608  1.00  0.00    -0.228 OA
HETATM    3  O   UNL     1      19.316  30.442  -5.176  1.00  0.00    -0.228 OA
HETATM    4  S   UNL     1      18.033  30.030  -5.594  1.00  0.00     0.140 S 
ENDROOT
BRANCH   4   5
HETATM    5  C   UNL     1      18.199  28.473  -6.392  1.00  0.00     0.135 C 
HETATM    6  C   UNL     1      18.489  27.462  -5.340  1.00  0.00     0.021 C 
ENDBRANCH   4   5
TORSDOF 1
ENDMDL
