MODEL 1
REMARK VINA RESULT:    -9.967      0.000      0.000
REMARK INTER + INTRA:         -13.278
REMARK INTER:                 -12.298
REMARK INTRA:                  -0.980
REMARK UNBOUND:                -0.980
REMARK  4 active torsions:
REMARK  status: ('A' for Active; 'I' for Inactive)
REMARK    1  A    between atoms: C_9  and  N_12 
REMARK    2  A    between atoms: C_15  and  C_16 
REMARK    3  A    between atoms: C_19  and  C_22 
REMARK    4  A    between atoms: C_23  and  C_24 
ROOT
HETATM    1  C   UNL     1      -5.872  -8.915  32.875  1.00  0.00    -0.023 A 
HETATM    2  C   UNL     1      -6.102  -9.509  30.456  1.00  0.00     0.020 C 
HETATM    3  C   UNL     1      -5.943  -9.792  33.971  1.00  0.00     0.037 A 
HETATM    4  C   UNL     1      -5.002  -9.674  35.008  1.00  0.00     0.031 A 
HETATM    5  C   UNL     1      -6.846  -8.978  31.695  1.00  0.00    -0.017 C 
HETATM    6  C   UNL     1      -8.019  -9.922  32.004  1.00  0.00     0.033 C 
HETATM    7  C   UNL     1      -7.564 -11.158  32.735  1.00  0.00     0.124 C 
HETATM    8  C   UNL     1      -7.414  -7.581  31.388  1.00  0.00     0.020 C 
HETATM    9  N   UNL     1      -6.901 -10.785  33.986  1.00  0.00    -0.376 N 
HETATM   10  C   UNL     1      -4.868  -7.938  32.860  1.00  0.00     0.022 A 
HETATM   11  C   UNL     1      -4.019  -8.705  34.960  1.00  0.00     0.014 A 
HETATM   12  C   UNL     1      -3.953  -7.793  33.908  1.00  0.00    -0.025 A 
ENDROOT
BRANCH  12  13
HETATM   13  C   UNL     1      -2.877  -6.761  33.826  1.00  0.00    -0.026 A 
HETATM   14  C   UNL     1      -2.685  -6.065  32.639  1.00  0.00     0.013 A 
HETATM   15  C   UNL     1      -1.662  -5.147  32.492  1.00  0.00     0.012 A 
HETATM   16  C   UNL     1      -0.764  -4.883  33.518  1.00  0.00    -0.036 A 
HETATM   17  C   UNL     1      -0.931  -5.600  34.704  1.00  0.00     0.012 A 
HETATM   18  C   UNL     1      -1.960  -6.524  34.850  1.00  0.00     0.013 A 
BRANCH  16  19
HETATM   19  C   UNL     1       0.296  -3.889  33.300  1.00  0.00     0.018 C 
HETATM   20  C   UNL     1       0.634  -3.317  32.181  1.00  0.00     0.085 C 
BRANCH  20  21
HETATM   21  C   UNL     1       1.671  -2.233  32.065  1.00  0.00     0.198 C 
HETATM   22  O   UNL     1       2.084  -1.856  30.910  1.00  0.00    -0.645 OA
HETATM   23  O   UNL     1       2.037  -1.736  33.098  1.00  0.00    -0.645 OA
ENDBRANCH  20  21
ENDBRANCH  16  19
ENDBRANCH  12  13
BRANCH   9  24
HETATM   24  C   UNL     1      -7.189 -11.558  35.228  1.00  0.00     0.076 C 
HETATM   25  C   UNL     1      -7.370 -13.020  34.887  1.00  0.00     0.032 C 
HETATM   26  C   UNL     1      -8.357 -11.002  36.015  1.00  0.00     0.032 C 
ENDBRANCH   9  24
TORSDOF 4
ENDMDL
MODEL 2
REMARK VINA RESULT:    -9.118      1.353      3.028
REMARK INTER + INTRA:         -12.230
REMARK INTER:                 -11.286
REMARK INTRA:                  -0.944
REMARK UNBOUND:                -0.980
REMARK  4 active torsions:
REMARK  status: ('A' for Active; 'I' for Inactive)
REMARK    1  A    between atoms: C_9  and  N_12 
REMARK    2  A    between atoms: C_15  and  C_16 
REMARK    3  A    between atoms: C_19  and  C_22 
REMARK    4  A    between atoms: C_23  and  C_24 
ROOT
HETATM    1  C   UNL     1      -6.414  -9.796  33.492  1.00  0.00    -0.023 A 
HETATM    2  C   UNL     1      -7.204 -10.165  35.836  1.00  0.00     0.020 C 
HETATM    3  C   UNL     1      -7.209  -9.690  32.339  1.00  0.00     0.037 A 
HETATM    4  C   UNL     1      -6.928  -8.683  31.399  1.00  0.00     0.031 A 
HETATM    5  C   UNL     1      -6.653 -10.853  34.574  1.00  0.00    -0.017 C 
HETATM    6  C   UNL     1      -7.675 -11.899  34.100  1.00  0.00     0.033 C 
HETATM    7  C   UNL     1      -8.806 -11.266  33.332  1.00  0.00     0.124 C 
HETATM    8  C   UNL     1      -5.341 -11.578  34.921  1.00  0.00     0.020 C 
HETATM    9  N   UNL     1      -8.282 -10.542  32.173  1.00  0.00    -0.376 N 
HETATM   10  C   UNL     1      -5.352  -8.896  33.661  1.00  0.00     0.022 A 
HETATM   11  C   UNL     1      -5.879  -7.807  31.599  1.00  0.00     0.014 A 
HETATM   12  C   UNL     1      -5.046  -7.917  32.711  1.00  0.00    -0.025 A 
ENDROOT
BRANCH  12  13
HETATM   13  C   UNL     1      -3.929  -6.957  32.957  1.00  0.00    -0.026 A 
HETATM   14  C   UNL     1      -3.398  -6.239  31.893  1.00  0.00     0.013 A 
HETATM   15  C   UNL     1      -2.323  -5.386  32.057  1.00  0.00     0.012 A 
HETATM   16  C   UNL     1      -1.708  -5.214  33.291  1.00  0.00    -0.036 A 
HETATM   17  C   UNL     1      -2.216  -5.955  34.358  1.00  0.00     0.012 A 
HETATM   18  C   UNL     1      -3.297  -6.813  34.192  1.00  0.00     0.013 A 
BRANCH  16  19
HETATM   19  C   UNL     1      -0.573  -4.286  33.399  1.00  0.00     0.018 C 
HETATM   20  C   UNL     1      -0.024  -3.584  32.451  1.00  0.00     0.085 C 
BRANCH  20  21
HETATM   21  C   UNL     1       1.076  -2.581  32.669  1.00  0.00     0.198 C 
HETATM   22  O   UNL     1       1.319  -1.688  31.781  1.00  0.00    -0.645 OA
HETATM   23  O   UNL     1       1.656  -2.651  33.721  1.00  0.00    -0.645 OA
ENDBRANCH  20  21
ENDBRANCH  16  19
ENDBRANCH  12  13
BRANCH   9  24
HETATM   24  C   UNL     1      -8.983 -10.650  30.861  1.00  0.00     0.076 C 
HETATM   25  C   UNL     1     -10.370 -10.057  30.976  1.00  0.00     0.032 C 
HETATM   26  C   UNL     1      -9.004 -12.061  30.314  1.00  0.00     0.032 C 
ENDBRANCH   9  24
TORSDOF 4
ENDMDL
MODEL 3
REMARK VINA RESULT:    -8.865      1.279      1.649
REMARK INTER + INTRA:         -11.918
REMARK INTER:                 -10.987
REMARK INTRA:                  -0.930
REMARK UNBOUND:                -0.980
REMARK  4 active torsions:
REMARK  status: ('A' for Active; 'I' for Inactive)
REMARK    1  A    between atoms: C_9  and  N_12 
REMARK    2  A    between atoms: C_15  and  C_16 
REMARK    3  A    between atoms: C_19  and  C_22 
REMARK    4  A    between atoms: C_23  and  C_24 
ROOT
HETATM    1  C   UNL     1      -6.848 -10.016  33.331  1.00  0.00    -0.023 A 
HETATM    2  C   UNL     1      -7.595 -10.032  30.944  1.00  0.00     0.020 C 
HETATM    3  C   UNL     1      -6.672 -11.129  34.169  1.00  0.00     0.037 A 
HETATM    4  C   UNL     1      -5.529 -11.205  34.983  1.00  0.00     0.031 A 
HETATM    5  C   UNL     1      -8.055  -9.855  32.403  1.00  0.00    -0.017 C 
HETATM    6  C   UNL     1      -9.126 -10.913  32.710  1.00  0.00     0.033 C 
HETATM    7  C   UNL     1      -8.515 -12.258  33.005  1.00  0.00     0.124 C 
HETATM    8  C   UNL     1      -8.685  -8.461  32.572  1.00  0.00     0.020 C 
HETATM    9  N   UNL     1      -7.598 -12.153  34.142  1.00  0.00    -0.376 N 
HETATM   10  C   UNL     1      -5.877  -9.005  33.345  1.00  0.00     0.022 A 
HETATM   11  C   UNL     1      -4.587 -10.195  34.968  1.00  0.00     0.014 A 
HETATM   12  C   UNL     1      -4.758  -9.058  34.181  1.00  0.00    -0.025 A 
ENDROOT
BRANCH  12  13
HETATM   13  C   UNL     1      -3.732  -7.975  34.129  1.00  0.00    -0.026 A 
HETATM   14  C   UNL     1      -3.868  -6.946  33.205  1.00  0.00     0.013 A 
HETATM   15  C   UNL     1      -2.913  -5.955  33.074  1.00  0.00     0.012 A 
HETATM   16  C   UNL     1      -1.761  -5.944  33.850  1.00  0.00    -0.036 A 
HETATM   17  C   UNL     1      -1.601  -6.990  34.759  1.00  0.00     0.012 A 
HETATM   18  C   UNL     1      -2.562  -7.986  34.890  1.00  0.00     0.013 A 
BRANCH  16  19
HETATM   19  C   UNL     1      -0.789  -4.856  33.667  1.00  0.00     0.018 C 
HETATM   20  C   UNL     1      -0.862  -3.852  32.843  1.00  0.00     0.085 C 
BRANCH  20  21
HETATM   21  C   UNL     1       0.135  -2.727  32.790  1.00  0.00     0.198 C 
HETATM   22  O   UNL     1       0.051  -1.833  31.873  1.00  0.00    -0.645 OA
HETATM   23  O   UNL     1       0.959  -2.707  33.667  1.00  0.00    -0.645 OA
ENDBRANCH  20  21
ENDBRANCH  16  19
ENDBRANCH  12  13
BRANCH   9  24
HETATM   24  C   UNL     1      -7.603 -13.214  35.190  1.00  0.00     0.076 C 
HETATM   25  C   UNL     1      -8.134 -14.504  34.605  1.00  0.00     0.032 C 
HETATM   26  C   UNL     1      -8.344 -12.804  36.444  1.00  0.00     0.032 C 
ENDBRANCH   9  24
TORSDOF 4
ENDMDL
MODEL 4
REMARK VINA RESULT:    -8.771      4.884      9.519
REMARK INTER + INTRA:         -11.801
REMARK INTER:                 -10.911
REMARK INTRA:                  -0.890
REMARK UNBOUND:                -0.980
REMARK  4 active torsions:
REMARK  status: ('A' for Active; 'I' for Inactive)
REMARK    1  A    between atoms: C_9  and  N_12 
REMARK    2  A    between atoms: C_15  and  C_16 
REMARK    3  A    between atoms: C_19  and  C_22 
REMARK    4  A    between atoms: C_23  and  C_24 
ROOT
HETATM    1  C   UNL     1      -0.198  -4.350  31.657  1.00  0.00    -0.023 A 
HETATM    2  C   UNL     1       1.323  -3.356  33.376  1.00  0.00     0.020 C 
HETATM    3  C   UNL     1       0.151  -4.773  30.364  1.00  0.00     0.037 A 
HETATM    4  C   UNL     1      -0.344  -5.997  29.883  1.00  0.00     0.031 A 
HETATM    5  C   UNL     1       0.304  -3.038  32.267  1.00  0.00    -0.017 C 
HETATM    6  C   UNL     1       0.994  -2.169  31.203  1.00  0.00     0.033 C 
HETATM    7  C   UNL     1       1.839  -2.994  30.270  1.00  0.00     0.124 C 
HETATM    8  C   UNL     1      -0.866  -2.238  32.866  1.00  0.00     0.020 C 
HETATM    9  N   UNL     1       1.014  -4.005  29.607  1.00  0.00    -0.376 N 
HETATM   10  C   UNL     1      -1.044  -5.162  32.424  1.00  0.00     0.022 A 
HETATM   11  C   UNL     1      -1.170  -6.779  30.667  1.00  0.00     0.014 A 
HETATM   12  C   UNL     1      -1.569  -6.362  31.936  1.00  0.00    -0.025 A 
ENDROOT
BRANCH  12  13
HETATM   13  C   UNL     1      -2.435  -7.211  32.807  1.00  0.00    -0.026 A 
HETATM   14  C   UNL     1      -3.742  -7.480  32.420  1.00  0.00     0.013 A 
HETATM   15  C   UNL     1      -4.602  -8.207  33.221  1.00  0.00     0.012 A 
HETATM   16  C   UNL     1      -4.210  -8.694  34.461  1.00  0.00    -0.036 A 
HETATM   17  C   UNL     1      -2.908  -8.402  34.872  1.00  0.00     0.012 A 
HETATM   18  C   UNL     1      -2.044  -7.671  34.065  1.00  0.00     0.013 A 
BRANCH  16  19
HETATM   19  C   UNL     1      -5.171  -9.467  35.260  1.00  0.00     0.018 C 
HETATM   20  C   UNL     1      -6.240 -10.083  34.846  1.00  0.00     0.085 C 
BRANCH  20  21
HETATM   21  C   UNL     1      -7.118 -10.936  35.720  1.00  0.00     0.198 C 
HETATM   22  O   UNL     1      -8.304 -10.547  36.018  1.00  0.00    -0.645 OA
HETATM   23  O   UNL     1      -6.655 -11.991  36.069  1.00  0.00    -0.645 OA
ENDBRANCH  20  21
ENDBRANCH  16  19
ENDBRANCH  12  13
BRANCH   9  24
HETATM   24  C   UNL     1       1.200  -4.266  28.151  1.00  0.00     0.076 C 
HETATM   25  C   UNL     1       2.527  -4.956  27.923  1.00  0.00     0.032 C 
HETATM   26  C   UNL     1       1.045  -3.023  27.301  1.00  0.00     0.032 C 
ENDBRANCH   9  24
TORSDOF 4
ENDMDL
MODEL 5
REMARK VINA RESULT:    -7.859      5.029      9.204
REMARK INTER + INTRA:         -10.676
REMARK INTER:                  -9.917
REMARK INTRA:                  -0.759
REMARK UNBOUND:                -0.980
REMARK  4 active torsions:
REMARK  status: ('A' for Active; 'I' for Inactive)
REMARK    1  A    between atoms: C_9  and  N_12 
REMARK    2  A    between atoms: C_15  and  C_16 
REMARK    3  A    between atoms: C_19  and  C_22 
REMARK    4  A    between atoms: C_23  and  C_24 
ROOT
HETATM    1  C   UNL     1      -1.184  -6.343  31.798  1.00  0.00    -0.023 A 
HETATM    2  C   UNL     1      -1.245  -6.813  29.342  1.00  0.00     0.020 C 
HETATM    3  C   UNL     1      -1.047  -5.089  32.416  1.00  0.00     0.037 A 
HETATM    4  C   UNL     1      -1.864  -4.769  33.513  1.00  0.00     0.031 A 
HETATM    5  C   UNL     1      -0.345  -6.773  30.591  1.00  0.00    -0.017 C 
HETATM    6  C   UNL     1       0.799  -5.779  30.338  1.00  0.00     0.033 C 
HETATM    7  C   UNL     1       0.356  -4.354  30.541  1.00  0.00     0.124 C 
HETATM    8  C   UNL     1       0.263  -8.167  30.824  1.00  0.00     0.020 C 
HETATM    9  N   UNL     1      -0.148  -4.174  31.903  1.00  0.00    -0.376 N 
HETATM   10  C   UNL     1      -2.128  -7.244  32.310  1.00  0.00     0.022 A 
HETATM   11  C   UNL     1      -2.790  -5.676  33.989  1.00  0.00     0.014 A 
HETATM   12  C   UNL     1      -2.917  -6.944  33.425  1.00  0.00    -0.025 A 
ENDROOT
BRANCH  12  13
HETATM   13  C   UNL     1      -3.937  -7.922  33.907  1.00  0.00    -0.026 A 
HETATM   14  C   UNL     1      -3.765  -8.540  35.140  1.00  0.00     0.013 A 
HETATM   15  C   UNL     1      -4.646  -9.499  35.601  1.00  0.00     0.012 A 
HETATM   16  C   UNL     1      -5.742  -9.906  34.851  1.00  0.00    -0.036 A 
HETATM   17  C   UNL     1      -5.905  -9.313  33.598  1.00  0.00     0.012 A 
HETATM   18  C   UNL     1      -5.018  -8.349  33.135  1.00  0.00     0.013 A 
BRANCH  16  19
HETATM   19  C   UNL     1      -6.646 -10.925  35.404  1.00  0.00     0.018 C 
HETATM   20  C   UNL     1      -6.329 -11.979  36.097  1.00  0.00     0.085 C 
BRANCH  20  21
HETATM   21  C   UNL     1      -7.330 -12.921  36.710  1.00  0.00     0.198 C 
HETATM   22  O   UNL     1      -7.056 -13.530  37.806  1.00  0.00    -0.645 OA
HETATM   23  O   UNL     1      -8.385 -13.019  36.138  1.00  0.00    -0.645 OA
ENDBRANCH  20  21
ENDBRANCH  16  19
ENDBRANCH  12  13
BRANCH   9  24
HETATM   24  C   UNL     1       0.226  -2.952  32.670  1.00  0.00     0.076 C 
HETATM   25  C   UNL     1       0.866  -1.944  31.741  1.00  0.00     0.032 C 
HETATM   26  C   UNL     1       1.090  -3.250  33.877  1.00  0.00     0.032 C 
ENDBRANCH   9  24
TORSDOF 4
ENDMDL
MODEL 6
REMARK VINA RESULT:    -7.679      2.288      4.158
REMARK INTER + INTRA:         -10.455
REMARK INTER:                  -9.514
REMARK INTRA:                  -0.941
REMARK UNBOUND:                -0.980
REMARK  4 active torsions:
REMARK  status: ('A' for Active; 'I' for Inactive)
REMARK    1  A    between atoms: C_9  and  N_12 
REMARK    2  A    between atoms: C_15  and  C_16 
REMARK    3  A    between atoms: C_19  and  C_22 
REMARK    4  A    between atoms: C_23  and  C_24 
ROOT
HETATM    1  C   UNL     1      -7.636 -10.558  31.504  1.00  0.00    -0.023 A 
HETATM    2  C   UNL     1      -7.611 -12.601  32.948  1.00  0.00     0.020 C 
HETATM    3  C   UNL     1      -8.766  -9.861  31.046  1.00  0.00     0.037 A 
HETATM    4  C   UNL     1      -8.777  -8.457  31.096  1.00  0.00     0.031 A 
HETATM    5  C   UNL     1      -7.541 -12.086  31.498  1.00  0.00    -0.017 C 
HETATM    6  C   UNL     1      -8.702 -12.703  30.703  1.00  0.00     0.033 C 
HETATM    7  C   UNL     1      -9.999 -11.981  30.958  1.00  0.00     0.124 C 
HETATM    8  C   UNL     1      -6.217 -12.543  30.860  1.00  0.00     0.020 C 
HETATM    9  N   UNL     1      -9.865 -10.568  30.600  1.00  0.00    -0.376 N 
HETATM   10  C   UNL     1      -6.544  -9.823  31.988  1.00  0.00     0.022 A 
HETATM   11  C   UNL     1      -7.687  -7.762  31.586  1.00  0.00     0.014 A 
HETATM   12  C   UNL     1      -6.535  -8.425  32.006  1.00  0.00    -0.025 A 
ENDROOT
BRANCH  12  13
HETATM   13  C   UNL     1      -5.364  -7.690  32.568  1.00  0.00    -0.026 A 
HETATM   14  C   UNL     1      -5.155  -6.362  32.215  1.00  0.00     0.013 A 
HETATM   15  C   UNL     1      -4.052  -5.658  32.657  1.00  0.00     0.012 A 
HETATM   16  C   UNL     1      -3.087  -6.244  33.467  1.00  0.00    -0.036 A 
HETATM   17  C   UNL     1      -3.273  -7.585  33.802  1.00  0.00     0.012 A 
HETATM   18  C   UNL     1      -4.383  -8.293  33.356  1.00  0.00     0.013 A 
BRANCH  16  19
HETATM   19  C   UNL     1      -1.942  -5.436  33.910  1.00  0.00     0.018 C 
HETATM   20  C   UNL     1      -1.109  -4.761  33.172  1.00  0.00     0.085 C 
BRANCH  20  21
HETATM   21  C   UNL     1      -0.019  -3.879  33.717  1.00  0.00     0.198 C 
HETATM   22  O   UNL     1       0.001  -2.628  33.432  1.00  0.00    -0.645 OA
HETATM   23  O   UNL     1       0.777  -4.409  34.448  1.00  0.00    -0.645 OA
ENDBRANCH  20  21
ENDBRANCH  16  19
ENDBRANCH  12  13
BRANCH   9  24
HETATM   24  C   UNL     1     -10.968  -9.889  29.861  1.00  0.00     0.076 C 
HETATM   25  C   UNL     1     -12.277 -10.106  30.588  1.00  0.00     0.032 C 
HETATM   26  C   UNL     1     -11.045 -10.297  28.406  1.00  0.00     0.032 C 
ENDBRANCH   9  24
TORSDOF 4
ENDMDL
MODEL 7
REMARK VINA RESULT:    -7.227      2.079      4.027
REMARK INTER + INTRA:          -9.896
REMARK INTER:                  -9.040
REMARK INTRA:                  -0.857
REMARK UNBOUND:                -0.980
REMARK  4 active torsions:
REMARK  status: ('A' for Active; 'I' for Inactive)
REMARK    1  A    between atoms: C_9  and  N_12 
REMARK    2  A    between atoms: C_15  and  C_16 
REMARK    3  A    between atoms: C_19  and  C_22 
REMARK    4  A    between atoms: C_23  and  C_24 
ROOT
HETATM    1  C   UNL     1      -6.100 -12.457  33.886  1.00  0.00    -0.023 A 
HETATM    2  C   UNL     1      -5.248 -13.925  35.723  1.00  0.00     0.020 C 
HETATM    3  C   UNL     1      -7.436 -12.298  33.483  1.00  0.00     0.037 A 
HETATM    4  C   UNL     1      -7.927 -11.007  33.219  1.00  0.00     0.031 A 
HETATM    5  C   UNL     1      -5.485 -13.823  34.205  1.00  0.00    -0.017 C 
HETATM    6  C   UNL     1      -6.426 -14.960  33.779  1.00  0.00     0.033 C 
HETATM    7  C   UNL     1      -7.865 -14.638  34.083  1.00  0.00     0.124 C 
HETATM    8  C   UNL     1      -4.145 -13.998  33.469  1.00  0.00     0.020 C 
HETATM    9  N   UNL     1      -8.259 -13.404  33.401  1.00  0.00    -0.376 N 
HETATM   10  C   UNL     1      -5.292 -11.318  33.999  1.00  0.00     0.022 A 
HETATM   11  C   UNL     1      -7.106  -9.903  33.348  1.00  0.00     0.014 A 
HETATM   12  C   UNL     1      -5.764 -10.036  33.702  1.00  0.00    -0.025 A 
ENDROOT
BRANCH  12  13
HETATM   13  C   UNL     1      -4.875  -8.850  33.877  1.00  0.00    -0.026 A 
HETATM   14  C   UNL     1      -4.860  -7.856  32.906  1.00  0.00     0.013 A 
HETATM   15  C   UNL     1      -4.009  -6.771  32.990  1.00  0.00     0.012 A 
HETATM   16  C   UNL     1      -3.114  -6.624  34.043  1.00  0.00    -0.036 A 
HETATM   17  C   UNL     1      -3.101  -7.633  35.006  1.00  0.00     0.012 A 
HETATM   18  C   UNL     1      -3.957  -8.724  34.920  1.00  0.00     0.013 A 
BRANCH  16  19
HETATM   19  C   UNL     1      -2.241  -5.441  34.077  1.00  0.00     0.018 C 
HETATM   20  C   UNL     1      -1.000  -5.355  33.697  1.00  0.00     0.085 C 
BRANCH  20  21
HETATM   21  C   UNL     1      -0.208  -4.076  33.675  1.00  0.00     0.198 C 
HETATM   22  O   UNL     1      -0.686  -3.031  33.104  1.00  0.00    -0.645 OA
HETATM   23  O   UNL     1       0.848  -4.096  34.252  1.00  0.00    -0.645 OA
ENDBRANCH  20  21
ENDBRANCH  16  19
ENDBRANCH  12  13
BRANCH   9  24
HETATM   24  C   UNL     1      -9.587 -13.327  32.729  1.00  0.00     0.076 C 
HETATM   25  C   UNL     1     -10.516 -14.366  33.317  1.00  0.00     0.032 C 
HETATM   26  C   UNL     1      -9.494 -13.426  31.221  1.00  0.00     0.032 C 
ENDBRANCH   9  24
TORSDOF 4
ENDMDL
MODEL 8
REMARK VINA RESULT:    -7.223      5.169      9.248
REMARK INTER + INTRA:          -9.892
REMARK INTER:                  -9.174
REMARK INTRA:                  -0.718
REMARK UNBOUND:                -0.980
REMARK  4 active torsions:
REMARK  status: ('A' for Active; 'I' for Inactive)
REMARK    1  A    between atoms: C_9  and  N_12 
REMARK    2  A    between atoms: C_15  and  C_16 
REMARK    3  A    between atoms: C_19  and  C_22 
REMARK    4  A    between atoms: C_23  and  C_24 
ROOT
HETATM    1  C   UNL     1      -1.456  -5.668  31.281  1.00  0.00    -0.023 A 
HETATM    2  C   UNL     1      -1.187  -5.022  28.880  1.00  0.00     0.020 C 
HETATM    3  C   UNL     1      -1.117  -4.899  32.407  1.00  0.00     0.037 A 
HETATM    4  C   UNL     1      -2.011  -4.831  33.489  1.00  0.00     0.031 A 
HETATM    5  C   UNL     1      -0.550  -5.790  30.053  1.00  0.00    -0.017 C 
HETATM    6  C   UNL     1       0.837  -5.191  30.335  1.00  0.00     0.033 C 
HETATM    7  C   UNL     1       0.745  -3.922  31.141  1.00  0.00     0.124 C 
HETATM    8  C   UNL     1      -0.371  -7.266  29.656  1.00  0.00     0.020 C 
HETATM    9  N   UNL     1       0.064  -4.183  32.410  1.00  0.00    -0.376 N 
HETATM   10  C   UNL     1      -2.676  -6.358  31.282  1.00  0.00     0.022 A 
HETATM   11  C   UNL     1      -3.209  -5.517  33.455  1.00  0.00     0.014 A 
HETATM   12  C   UNL     1      -3.551  -6.324  32.371  1.00  0.00    -0.025 A 
ENDROOT
BRANCH  12  13
HETATM   13  C   UNL     1      -4.858  -7.043  32.306  1.00  0.00    -0.026 A 
HETATM   14  C   UNL     1      -4.899  -8.411  32.549  1.00  0.00     0.013 A 
HETATM   15  C   UNL     1      -6.072  -9.133  32.439  1.00  0.00     0.012 A 
HETATM   16  C   UNL     1      -7.268  -8.533  32.065  1.00  0.00    -0.036 A 
HETATM   17  C   UNL     1      -7.229  -7.166  31.789  1.00  0.00     0.012 A 
HETATM   18  C   UNL     1      -6.049  -6.440  31.900  1.00  0.00     0.013 A 
BRANCH  16  19
HETATM   19  C   UNL     1      -8.481  -9.357  31.974  1.00  0.00     0.018 C 
HETATM   20  C   UNL     1      -9.281  -9.490  30.956  1.00  0.00     0.085 C 
BRANCH  20  21
HETATM   21  C   UNL     1     -10.451 -10.435  30.917  1.00  0.00     0.198 C 
HETATM   22  O   UNL     1     -11.621 -10.001  30.622  1.00  0.00    -0.645 OA
HETATM   23  O   UNL     1     -10.204 -11.594  31.132  1.00  0.00    -0.645 OA
ENDBRANCH  20  21
ENDBRANCH  16  19
ENDBRANCH  12  13
BRANCH   9  24
HETATM   24  C   UNL     1       0.592  -3.577  33.665  1.00  0.00     0.076 C 
HETATM   25  C   UNL     1       1.656  -2.556  33.329  1.00  0.00     0.032 C 
HETATM   26  C   UNL     1       1.078  -4.608  34.662  1.00  0.00     0.032 C 
ENDBRANCH   9  24
TORSDOF 4
ENDMDL
