MODEL 1
REMARK VINA RESULT:    -8.281      0.000      0.000
REMARK INTER + INTRA:         -11.522
REMARK INTER:                 -10.459
REMARK INTRA:                  -1.062
REMARK UNBOUND:                -1.062
REMARK  5 active torsions:
REMARK  status: ('A' for Active; 'I' for Inactive)
REMARK    1  A    between atoms: C_6  and  C_7 
REMARK    2  A    between atoms: C_12  and  O_19 
REMARK    3  A    between atoms: C_13  and  C_14 
REMARK    4  A    between atoms: C_14  and  O_21 
REMARK    5  A    between atoms: C_15  and  O_21 
ROOT
HETATM    1  C   UNL     1     -43.882 -29.490   4.457  1.00  0.00     0.001 A 
HETATM    2  C   UNL     1     -46.165 -29.145   3.875  1.00  0.00    -0.022 A 
HETATM    3  C   UNL     1     -44.838 -29.276   3.489  1.00  0.00     0.010 A 
HETATM    4  C   UNL     1     -46.517 -29.233   5.224  1.00  0.00    -0.048 A 
HETATM    5  C   UNL     1     -48.043 -29.075   5.359  1.00  0.00     0.057 C 
HETATM    6  C   UNL     1     -48.430 -28.441   4.037  1.00  0.00     0.125 C 
HETATM    7  C   UNL     1     -45.550 -29.451   6.185  1.00  0.00     0.008 A 
HETATM    8  C   UNL     1     -44.236 -29.578   5.782  1.00  0.00     0.001 A 
HETATM    9  C   UNL     1     -47.425 -28.901   3.032  1.00  0.00     0.180 C 
ENDROOT
BRANCH   9  10
HETATM   10  O   UNL     1     -47.280 -27.838   2.126  1.00  0.00    -0.306 OA
BRANCH  10  11
HETATM   11  C   UNL     1     -47.044 -28.085   0.787  1.00  0.00     0.296 C 
HETATM   12  O   UNL     1     -47.767 -28.774   0.151  1.00  0.00    -0.259 OA
BRANCH  11  13
HETATM   13  C   UNL     1     -45.849 -27.353   0.223  1.00  0.00     0.072 A 
HETATM   14  C   UNL     1     -44.579 -27.877   0.348  1.00  0.00     0.022 A 
HETATM   15  C   UNL     1     -43.500 -27.169  -0.147  1.00  0.00     0.028 A 
HETATM   16  C   UNL     1     -43.704 -25.940  -0.746  1.00  0.00     0.049 A 
HETATM   17  N   UNL     1     -42.586 -25.195  -1.241  1.00  0.00    -0.102 NA
HETATM   18  C   UNL     1     -44.969 -25.403  -0.870  1.00  0.00     0.064 A 
HETATM   19  C   UNL     1     -46.028 -26.122  -0.374  1.00  0.00     0.083 A 
BRANCH  19  20
HETATM   20  O   UNL     1     -47.289 -25.570  -0.514  1.00  0.00    -0.360 OA
ATOM     21  HO  UNL     1     -47.410 -24.630  -0.575  1.00  0.00     0.217 HD
ENDBRANCH  19  20
ENDBRANCH  11  13
ENDBRANCH  10  11
ENDBRANCH   9  10
BRANCH   6  22
HETATM   22  C   UNL     1     -49.854 -28.785   3.619  1.00  0.00     0.180 C 
HETATM   23  O   UNL     1     -50.070 -29.404   2.554  1.00  0.00    -0.648 OA
HETATM   24  O   UNL     1     -50.802 -28.420   4.349  1.00  0.00    -0.648 OA
ENDBRANCH   6  22
TORSDOF 5
ENDMDL
MODEL 2
REMARK VINA RESULT:    -8.191      3.983      5.572
REMARK INTER + INTRA:         -11.408
REMARK INTER:                 -10.224
REMARK INTRA:                  -1.184
REMARK UNBOUND:                -1.062
REMARK  5 active torsions:
REMARK  status: ('A' for Active; 'I' for Inactive)
REMARK    1  A    between atoms: C_6  and  C_7 
REMARK    2  A    between atoms: C_12  and  O_19 
REMARK    3  A    between atoms: C_13  and  C_14 
REMARK    4  A    between atoms: C_14  and  O_21 
REMARK    5  A    between atoms: C_15  and  O_21 
ROOT
HETATM    1  C   UNL     1     -47.531 -31.720   1.204  1.00  0.00     0.001 A 
HETATM    2  C   UNL     1     -45.170 -31.455   1.367  1.00  0.00    -0.022 A 
HETATM    3  C   UNL     1     -46.434 -30.890   1.265  1.00  0.00     0.010 A 
HETATM    4  C   UNL     1     -45.022 -32.844   1.411  1.00  0.00    -0.048 A 
HETATM    5  C   UNL     1     -43.528 -33.188   1.548  1.00  0.00     0.057 C 
HETATM    6  C   UNL     1     -42.850 -31.904   1.114  1.00  0.00     0.125 C 
HETATM    7  C   UNL     1     -46.131 -33.666   1.354  1.00  0.00     0.008 A 
HETATM    8  C   UNL     1     -47.378 -33.085   1.251  1.00  0.00     0.001 A 
HETATM    9  C   UNL     1     -43.789 -30.791   1.447  1.00  0.00     0.180 C 
ENDROOT
BRANCH   9  10
HETATM   10  O   UNL     1     -43.591 -29.817   0.455  1.00  0.00    -0.306 OA
BRANCH  10  11
HETATM   11  C   UNL     1     -43.278 -28.516   0.801  1.00  0.00     0.296 C 
HETATM   12  O   UNL     1     -42.250 -28.248   1.325  1.00  0.00    -0.259 OA
BRANCH  11  13
HETATM   13  C   UNL     1     -44.318 -27.499   0.393  1.00  0.00     0.072 A 
HETATM   14  C   UNL     1     -45.629 -27.629   0.804  1.00  0.00     0.022 A 
HETATM   15  C   UNL     1     -46.566 -26.702   0.387  1.00  0.00     0.028 A 
HETATM   16  C   UNL     1     -46.184 -25.669  -0.447  1.00  0.00     0.049 A 
HETATM   17  N   UNL     1     -47.156 -24.720  -0.898  1.00  0.00    -0.102 NA
HETATM   18  C   UNL     1     -44.877 -25.533  -0.870  1.00  0.00     0.064 A 
HETATM   19  C   UNL     1     -43.960 -26.463  -0.443  1.00  0.00     0.083 A 
BRANCH  19  20
HETATM   20  O   UNL     1     -42.653 -26.307  -0.872  1.00  0.00    -0.360 OA
ATOM     21  HO  UNL     1     -42.036 -25.774  -0.385  1.00  0.00     0.217 HD
ENDBRANCH  19  20
ENDBRANCH  11  13
ENDBRANCH  10  11
ENDBRANCH   9  10
BRANCH   6  22
HETATM   22  C   UNL     1     -41.486 -31.714   1.766  1.00  0.00     0.180 C 
HETATM   23  O   UNL     1     -41.377 -31.066   2.831  1.00  0.00    -0.648 OA
HETATM   24  O   UNL     1     -40.478 -32.201   1.208  1.00  0.00    -0.648 OA
ENDBRANCH   6  22
TORSDOF 5
ENDMDL
MODEL 3
REMARK VINA RESULT:    -8.080      3.245      6.569
REMARK INTER + INTRA:         -11.268
REMARK INTER:                 -10.092
REMARK INTRA:                  -1.176
REMARK UNBOUND:                -1.062
REMARK  5 active torsions:
REMARK  status: ('A' for Active; 'I' for Inactive)
REMARK    1  A    between atoms: C_6  and  C_7 
REMARK    2  A    between atoms: C_12  and  O_19 
REMARK    3  A    between atoms: C_13  and  C_14 
REMARK    4  A    between atoms: C_14  and  O_21 
REMARK    5  A    between atoms: C_15  and  O_21 
ROOT
HETATM    1  C   UNL     1     -45.744 -26.049  -1.015  1.00  0.00     0.001 A 
HETATM    2  C   UNL     1     -45.261 -27.698   0.634  1.00  0.00    -0.022 A 
HETATM    3  C   UNL     1     -46.175 -27.078  -0.206  1.00  0.00     0.010 A 
HETATM    4  C   UNL     1     -43.927 -27.283   0.652  1.00  0.00    -0.048 A 
HETATM    5  C   UNL     1     -43.141 -28.153   1.650  1.00  0.00     0.057 C 
HETATM    6  C   UNL     1     -44.240 -28.759   2.500  1.00  0.00     0.125 C 
HETATM    7  C   UNL     1     -43.506 -26.254  -0.166  1.00  0.00     0.008 A 
HETATM    8  C   UNL     1     -44.430 -25.648  -0.994  1.00  0.00     0.001 A 
HETATM    9  C   UNL     1     -45.452 -28.849   1.631  1.00  0.00     0.180 C 
ENDROOT
BRANCH   9  10
HETATM   10  O   UNL     1     -46.548 -28.656   2.488  1.00  0.00    -0.306 OA
BRANCH  10  11
HETATM   11  C   UNL     1     -47.410 -29.699   2.771  1.00  0.00     0.296 C 
HETATM   12  O   UNL     1     -47.396 -30.698   2.135  1.00  0.00    -0.259 OA
BRANCH  11  13
HETATM   13  C   UNL     1     -48.291 -29.466   3.975  1.00  0.00     0.072 A 
HETATM   14  C   UNL     1     -49.650 -29.697   3.909  1.00  0.00     0.022 A 
HETATM   15  C   UNL     1     -50.438 -29.443   5.016  1.00  0.00     0.028 A 
HETATM   16  C   UNL     1     -49.859 -28.945   6.168  1.00  0.00     0.049 A 
HETATM   17  N   UNL     1     -50.675 -28.660   7.309  1.00  0.00    -0.102 NA
HETATM   18  C   UNL     1     -48.502 -28.703   6.244  1.00  0.00     0.064 A 
HETATM   19  C   UNL     1     -47.737 -28.965   5.134  1.00  0.00     0.083 A 
BRANCH  19  20
HETATM   20  O   UNL     1     -46.377 -28.722   5.231  1.00  0.00    -0.360 OA
ATOM     21  HO  UNL     1     -45.992 -28.402   6.038  1.00  0.00     0.217 HD
ENDBRANCH  19  20
ENDBRANCH  11  13
ENDBRANCH  10  11
ENDBRANCH   9  10
BRANCH   6  22
HETATM   22  C   UNL     1     -43.850 -30.114   3.080  1.00  0.00     0.180 C 
HETATM   23  O   UNL     1     -43.750 -31.116   2.337  1.00  0.00    -0.648 OA
HETATM   24  O   UNL     1     -43.653 -30.209   4.311  1.00  0.00    -0.648 OA
ENDBRANCH   6  22
TORSDOF 5
ENDMDL
MODEL 4
REMARK VINA RESULT:    -7.865      3.183      6.545
REMARK INTER + INTRA:         -10.996
REMARK INTER:                  -9.999
REMARK INTRA:                  -0.997
REMARK UNBOUND:                -1.062
REMARK  5 active torsions:
REMARK  status: ('A' for Active; 'I' for Inactive)
REMARK    1  A    between atoms: C_6  and  C_7 
REMARK    2  A    between atoms: C_12  and  O_19 
REMARK    3  A    between atoms: C_13  and  C_14 
REMARK    4  A    between atoms: C_14  and  O_21 
REMARK    5  A    between atoms: C_15  and  O_21 
ROOT
HETATM    1  C   UNL     1     -45.678 -25.808  -0.857  1.00  0.00     0.001 A 
HETATM    2  C   UNL     1     -45.223 -27.637   0.599  1.00  0.00    -0.022 A 
HETATM    3  C   UNL     1     -46.138 -26.868  -0.107  1.00  0.00     0.010 A 
HETATM    4  C   UNL     1     -43.859 -27.337   0.542  1.00  0.00    -0.048 A 
HETATM    5  C   UNL     1     -43.083 -28.357   1.393  1.00  0.00     0.057 C 
HETATM    6  C   UNL     1     -44.164 -28.947   2.276  1.00  0.00     0.125 C 
HETATM    7  C   UNL     1     -43.410 -26.274  -0.217  1.00  0.00     0.008 A 
HETATM    8  C   UNL     1     -44.335 -25.521  -0.910  1.00  0.00     0.001 A 
HETATM    9  C   UNL     1     -45.441 -28.856   1.506  1.00  0.00     0.180 C 
ENDROOT
BRANCH   9  10
HETATM   10  O   UNL     1     -46.449 -28.653   2.463  1.00  0.00    -0.306 OA
BRANCH  10  11
HETATM   11  C   UNL     1     -47.417 -29.615   2.677  1.00  0.00     0.296 C 
HETATM   12  O   UNL     1     -47.490 -30.579   1.992  1.00  0.00    -0.259 OA
BRANCH  11  13
HETATM   13  C   UNL     1     -48.297 -29.353   3.877  1.00  0.00     0.072 A 
HETATM   14  C   UNL     1     -47.773 -28.796   5.026  1.00  0.00     0.022 A 
HETATM   15  C   UNL     1     -48.594 -28.600   6.121  1.00  0.00     0.028 A 
HETATM   16  C   UNL     1     -49.922 -28.977   6.057  1.00  0.00     0.049 A 
HETATM   17  N   UNL     1     -50.770 -28.794   7.196  1.00  0.00    -0.102 NA
HETATM   18  C   UNL     1     -50.455 -29.541   4.916  1.00  0.00     0.064 A 
HETATM   19  C   UNL     1     -49.624 -29.726   3.839  1.00  0.00     0.083 A 
BRANCH  19  20
HETATM   20  O   UNL     1     -50.177 -30.288   2.701  1.00  0.00    -0.360 OA
ATOM     21  HO  UNL     1     -49.758 -31.016   2.259  1.00  0.00     0.217 HD
ENDBRANCH  19  20
ENDBRANCH  11  13
ENDBRANCH  10  11
ENDBRANCH   9  10
BRANCH   6  22
HETATM   22  C   UNL     1     -43.856 -30.377   2.703  1.00  0.00     0.180 C 
HETATM   23  O   UNL     1     -44.155 -31.338   1.961  1.00  0.00    -0.648 OA
HETATM   24  O   UNL     1     -43.317 -30.571   3.815  1.00  0.00    -0.648 OA
ENDBRANCH   6  22
TORSDOF 5
ENDMDL
MODEL 5
REMARK VINA RESULT:    -7.832      2.375      4.004
REMARK INTER + INTRA:         -10.955
REMARK INTER:                  -9.735
REMARK INTRA:                  -1.220
REMARK UNBOUND:                -1.062
REMARK  5 active torsions:
REMARK  status: ('A' for Active; 'I' for Inactive)
REMARK    1  A    between atoms: C_6  and  C_7 
REMARK    2  A    between atoms: C_12  and  O_19 
REMARK    3  A    between atoms: C_13  and  C_14 
REMARK    4  A    between atoms: C_14  and  O_21 
REMARK    5  A    between atoms: C_15  and  O_21 
ROOT
HETATM    1  C   UNL     1     -49.688 -28.858   3.231  1.00  0.00     0.001 A 
HETATM    2  C   UNL     1     -47.341 -29.059   3.584  1.00  0.00    -0.022 A 
HETATM    3  C   UNL     1     -48.422 -29.025   2.714  1.00  0.00     0.010 A 
HETATM    4  C   UNL     1     -47.541 -28.921   4.960  1.00  0.00    -0.048 A 
HETATM    5  C   UNL     1     -46.179 -28.972   5.675  1.00  0.00     0.057 C 
HETATM    6  C   UNL     1     -45.279 -29.604   4.633  1.00  0.00     0.125 C 
HETATM    7  C   UNL     1     -48.815 -28.749   5.466  1.00  0.00     0.008 A 
HETATM    8  C   UNL     1     -49.876 -28.720   4.585  1.00  0.00     0.001 A 
HETATM    9  C   UNL     1     -45.843 -29.233   3.300  1.00  0.00     0.180 C 
ENDROOT
BRANCH   9  10
HETATM   10  O   UNL     1     -45.568 -30.321   2.456  1.00  0.00    -0.306 OA
BRANCH  10  11
HETATM   11  C   UNL     1     -44.708 -30.178   1.384  1.00  0.00     0.296 C 
HETATM   12  O   UNL     1     -44.079 -31.093   0.972  1.00  0.00    -0.259 OA
BRANCH  11  13
HETATM   13  C   UNL     1     -44.706 -28.797   0.771  1.00  0.00     0.072 A 
HETATM   14  C   UNL     1     -45.836 -28.297   0.158  1.00  0.00     0.022 A 
HETATM   15  C   UNL     1     -45.796 -27.044  -0.425  1.00  0.00     0.028 A 
HETATM   16  C   UNL     1     -44.622 -26.315  -0.400  1.00  0.00     0.049 A 
HETATM   17  N   UNL     1     -44.570 -25.026  -1.021  1.00  0.00    -0.102 NA
HETATM   18  C   UNL     1     -43.483 -26.807   0.204  1.00  0.00     0.064 A 
HETATM   19  C   UNL     1     -43.545 -28.053   0.779  1.00  0.00     0.083 A 
BRANCH  19  20
HETATM   20  O   UNL     1     -42.394 -28.527   1.387  1.00  0.00    -0.360 OA
ATOM     21  HO  UNL     1     -41.825 -29.145   0.945  1.00  0.00     0.217 HD
ENDBRANCH  19  20
ENDBRANCH  11  13
ENDBRANCH  10  11
ENDBRANCH   9  10
BRANCH   6  22
HETATM   22  C   UNL     1     -43.824 -29.173   4.778  1.00  0.00     0.180 C 
HETATM   23  O   UNL     1     -42.955 -29.599   3.985  1.00  0.00    -0.648 OA
HETATM   24  O   UNL     1     -43.514 -28.403   5.713  1.00  0.00    -0.648 OA
ENDBRANCH   6  22
TORSDOF 5
ENDMDL
MODEL 6
REMARK VINA RESULT:    -7.766      4.556      6.746
REMARK INTER + INTRA:         -10.871
REMARK INTER:                  -9.305
REMARK INTRA:                  -1.566
REMARK UNBOUND:                -1.062
REMARK  5 active torsions:
REMARK  status: ('A' for Active; 'I' for Inactive)
REMARK    1  A    between atoms: C_6  and  C_7 
REMARK    2  A    between atoms: C_12  and  O_19 
REMARK    3  A    between atoms: C_13  and  C_14 
REMARK    4  A    between atoms: C_14  and  O_21 
REMARK    5  A    between atoms: C_15  and  O_21 
ROOT
HETATM    1  C   UNL     1     -48.139 -33.020   0.786  1.00  0.00     0.001 A 
HETATM    2  C   UNL     1     -45.893 -32.325   1.163  1.00  0.00    -0.022 A 
HETATM    3  C   UNL     1     -47.255 -32.071   1.250  1.00  0.00     0.010 A 
HETATM    4  C   UNL     1     -45.434 -33.527   0.618  1.00  0.00    -0.048 A 
HETATM    5  C   UNL     1     -43.896 -33.549   0.669  1.00  0.00     0.057 C 
HETATM    6  C   UNL     1     -43.547 -32.086   0.858  1.00  0.00     0.125 C 
HETATM    7  C   UNL     1     -46.331 -34.473   0.161  1.00  0.00     0.008 A 
HETATM    8  C   UNL     1     -47.681 -34.201   0.254  1.00  0.00     0.001 A 
HETATM    9  C   UNL     1     -44.694 -31.465   1.588  1.00  0.00     0.180 C 
ENDROOT
BRANCH   9  10
HETATM   10  O   UNL     1     -44.773 -30.144   1.117  1.00  0.00    -0.306 OA
BRANCH  10  11
HETATM   11  C   UNL     1     -44.520 -29.082   1.963  1.00  0.00     0.296 C 
HETATM   12  O   UNL     1     -43.815 -28.187   1.635  1.00  0.00    -0.259 OA
BRANCH  11  13
HETATM   13  C   UNL     1     -45.264 -29.144   3.276  1.00  0.00     0.072 A 
HETATM   14  C   UNL     1     -46.636 -28.997   3.315  1.00  0.00     0.022 A 
HETATM   15  C   UNL     1     -47.288 -29.023   4.534  1.00  0.00     0.028 A 
HETATM   16  C   UNL     1     -46.558 -29.180   5.697  1.00  0.00     0.049 A 
HETATM   17  N   UNL     1     -47.228 -29.187   6.962  1.00  0.00    -0.102 NA
HETATM   18  C   UNL     1     -45.186 -29.321   5.671  1.00  0.00     0.064 A 
HETATM   19  C   UNL     1     -44.557 -29.294   4.450  1.00  0.00     0.083 A 
BRANCH  19  20
HETATM   20  O   UNL     1     -43.181 -29.444   4.443  1.00  0.00    -0.360 OA
ATOM     21  HO  UNL     1     -42.779 -30.300   4.533  1.00  0.00     0.217 HD
ENDBRANCH  19  20
ENDBRANCH  11  13
ENDBRANCH  10  11
ENDBRANCH   9  10
BRANCH   6  22
HETATM   22  C   UNL     1     -42.228 -31.890   1.595  1.00  0.00     0.180 C 
HETATM   23  O   UNL     1     -42.214 -31.719   2.835  1.00  0.00    -0.648 OA
HETATM   24  O   UNL     1     -41.165 -31.884   0.937  1.00  0.00    -0.648 OA
ENDBRANCH   6  22
TORSDOF 5
ENDMDL
MODEL 7
REMARK VINA RESULT:    -7.663      3.110      4.654
REMARK INTER + INTRA:         -10.741
REMARK INTER:                  -9.702
REMARK INTRA:                  -1.038
REMARK UNBOUND:                -1.062
REMARK  5 active torsions:
REMARK  status: ('A' for Active; 'I' for Inactive)
REMARK    1  A    between atoms: C_6  and  C_7 
REMARK    2  A    between atoms: C_12  and  O_19 
REMARK    3  A    between atoms: C_13  and  C_14 
REMARK    4  A    between atoms: C_14  and  O_21 
REMARK    5  A    between atoms: C_15  and  O_21 
ROOT
HETATM    1  C   UNL     1     -47.726 -28.781   6.873  1.00  0.00     0.001 A 
HETATM    2  C   UNL     1     -47.099 -29.137   4.603  1.00  0.00    -0.022 A 
HETATM    3  C   UNL     1     -46.800 -29.227   5.956  1.00  0.00     0.010 A 
HETATM    4  C   UNL     1     -48.322 -28.605   4.187  1.00  0.00    -0.048 A 
HETATM    5  C   UNL     1     -48.394 -28.648   2.650  1.00  0.00     0.057 C 
HETATM    6  C   UNL     1     -46.941 -28.816   2.253  1.00  0.00     0.125 C 
HETATM    7  C   UNL     1     -49.245 -28.166   5.116  1.00  0.00     0.008 A 
HETATM    8  C   UNL     1     -48.928 -28.263   6.456  1.00  0.00     0.001 A 
HETATM    9  C   UNL     1     -46.273 -29.543   3.375  1.00  0.00     0.180 C 
ENDROOT
BRANCH   9  10
HETATM   10  O   UNL     1     -44.957 -29.055   3.413  1.00  0.00    -0.306 OA
BRANCH  10  11
HETATM   11  C   UNL     1     -43.889 -29.925   3.517  1.00  0.00     0.296 C 
HETATM   12  O   UNL     1     -43.379 -30.153   4.562  1.00  0.00    -0.259 OA
BRANCH  11  13
HETATM   13  C   UNL     1     -43.498 -30.586   2.216  1.00  0.00     0.072 A 
HETATM   14  C   UNL     1     -44.091 -31.768   1.821  1.00  0.00     0.022 A 
HETATM   15  C   UNL     1     -43.689 -32.369   0.642  1.00  0.00     0.028 A 
HETATM   16  C   UNL     1     -42.690 -31.788  -0.116  1.00  0.00     0.049 A 
HETATM   17  N   UNL     1     -42.257 -32.419  -1.326  1.00  0.00    -0.102 NA
HETATM   18  C   UNL     1     -42.086 -30.610   0.272  1.00  0.00     0.064 A 
HETATM   19  C   UNL     1     -42.500 -30.028   1.445  1.00  0.00     0.083 A 
BRANCH  19  20
HETATM   20  O   UNL     1     -41.887 -28.843   1.816  1.00  0.00    -0.360 OA
ATOM     21  HO  UNL     1     -42.317 -28.006   1.688  1.00  0.00     0.217 HD
ENDBRANCH  19  20
ENDBRANCH  11  13
ENDBRANCH  10  11
ENDBRANCH   9  10
BRANCH   6  22
HETATM   22  C   UNL     1     -46.778 -29.543   0.924  1.00  0.00     0.180 C 
HETATM   23  O   UNL     1     -45.961 -29.131   0.072  1.00  0.00    -0.648 OA
HETATM   24  O   UNL     1     -47.490 -30.546   0.694  1.00  0.00    -0.648 OA
ENDBRANCH   6  22
TORSDOF 5
ENDMDL
MODEL 8
REMARK VINA RESULT:    -7.641      3.720      5.861
REMARK INTER + INTRA:         -10.713
REMARK INTER:                  -9.499
REMARK INTRA:                  -1.215
REMARK UNBOUND:                -1.062
REMARK  5 active torsions:
REMARK  status: ('A' for Active; 'I' for Inactive)
REMARK    1  A    between atoms: C_6  and  C_7 
REMARK    2  A    between atoms: C_12  and  O_19 
REMARK    3  A    between atoms: C_13  and  C_14 
REMARK    4  A    between atoms: C_14  and  O_21 
REMARK    5  A    between atoms: C_15  and  O_21 
ROOT
HETATM    1  C   UNL     1     -41.691 -30.056   2.769  1.00  0.00     0.001 A 
HETATM    2  C   UNL     1     -43.963 -30.357   2.121  1.00  0.00    -0.022 A 
HETATM    3  C   UNL     1     -42.977 -29.566   2.694  1.00  0.00     0.010 A 
HETATM    4  C   UNL     1     -43.648 -31.625   1.627  1.00  0.00    -0.048 A 
HETATM    5  C   UNL     1     -44.916 -32.263   1.031  1.00  0.00     0.057 C 
HETATM    6  C   UNL     1     -46.027 -31.438   1.650  1.00  0.00     0.125 C 
HETATM    7  C   UNL     1     -42.355 -32.103   1.704  1.00  0.00     0.008 A 
HETATM    8  C   UNL     1     -41.389 -31.303   2.279  1.00  0.00     0.001 A 
HETATM    9  C   UNL     1     -45.458 -30.081   1.908  1.00  0.00     0.180 C 
ENDROOT
BRANCH   9  10
HETATM   10  O   UNL     1     -46.099 -29.614   3.066  1.00  0.00    -0.306 OA
BRANCH  10  11
HETATM   11  C   UNL     1     -47.129 -28.697   2.977  1.00  0.00     0.296 C 
HETATM   12  O   UNL     1     -47.244 -27.990   2.032  1.00  0.00    -0.259 OA
BRANCH  11  13
HETATM   13  C   UNL     1     -48.097 -28.736   4.135  1.00  0.00     0.072 A 
HETATM   14  C   UNL     1     -47.663 -28.496   5.424  1.00  0.00     0.022 A 
HETATM   15  C   UNL     1     -48.565 -28.572   6.469  1.00  0.00     0.028 A 
HETATM   16  C   UNL     1     -49.882 -28.902   6.215  1.00  0.00     0.049 A 
HETATM   17  N   UNL     1     -50.813 -29.003   7.297  1.00  0.00    -0.102 NA
HETATM   18  C   UNL     1     -50.325 -29.151   4.932  1.00  0.00     0.064 A 
HETATM   19  C   UNL     1     -49.415 -29.068   3.907  1.00  0.00     0.083 A 
BRANCH  19  20
HETATM   20  O   UNL     1     -49.880 -29.314   2.626  1.00  0.00    -0.360 OA
ATOM     21  HO  UNL     1     -50.308 -28.634   2.119  1.00  0.00     0.217 HD
ENDBRANCH  19  20
ENDBRANCH  11  13
ENDBRANCH  10  11
ENDBRANCH   9  10
BRANCH   6  22
HETATM   22  C   UNL     1     -47.270 -31.379   0.772  1.00  0.00     0.180 C 
HETATM   23  O   UNL     1     -48.410 -31.453   1.282  1.00  0.00    -0.648 OA
HETATM   24  O   UNL     1     -47.130 -31.275  -0.466  1.00  0.00    -0.648 OA
ENDBRANCH   6  22
TORSDOF 5
ENDMDL
MODEL 9
REMARK VINA RESULT:    -7.622      1.944      2.950
REMARK INTER + INTRA:         -10.690
REMARK INTER:                  -9.396
REMARK INTRA:                  -1.293
REMARK UNBOUND:                -1.062
REMARK  5 active torsions:
REMARK  status: ('A' for Active; 'I' for Inactive)
REMARK    1  A    between atoms: C_6  and  C_7 
REMARK    2  A    between atoms: C_12  and  O_19 
REMARK    3  A    between atoms: C_13  and  C_14 
REMARK    4  A    between atoms: C_14  and  O_21 
REMARK    5  A    between atoms: C_15  and  O_21 
ROOT
HETATM    1  C   UNL     1     -48.119 -28.407   6.475  1.00  0.00     0.001 A 
HETATM    2  C   UNL     1     -48.089 -29.270   4.255  1.00  0.00    -0.022 A 
HETATM    3  C   UNL     1     -47.409 -28.733   5.340  1.00  0.00     0.010 A 
HETATM    4  C   UNL     1     -49.469 -29.476   4.321  1.00  0.00    -0.048 A 
HETATM    5  C   UNL     1     -49.950 -30.098   2.998  1.00  0.00     0.057 C 
HETATM    6  C   UNL     1     -48.809 -29.787   2.050  1.00  0.00     0.125 C 
HETATM    7  C   UNL     1     -50.169 -29.149   5.466  1.00  0.00     0.008 A 
HETATM    8  C   UNL     1     -49.476 -28.615   6.534  1.00  0.00     0.001 A 
HETATM    9  C   UNL     1     -47.570 -29.717   2.882  1.00  0.00     0.180 C 
ENDROOT
BRANCH   9  10
HETATM   10  O   UNL     1     -46.753 -28.755   2.264  1.00  0.00    -0.306 OA
BRANCH  10  11
HETATM   11  C   UNL     1     -45.560 -29.124   1.674  1.00  0.00     0.296 C 
HETATM   12  O   UNL     1     -45.137 -30.226   1.775  1.00  0.00    -0.259 OA
BRANCH  11  13
HETATM   13  C   UNL     1     -44.909 -28.032   0.857  1.00  0.00     0.072 A 
HETATM   14  C   UNL     1     -43.689 -27.506   1.230  1.00  0.00     0.022 A 
HETATM   15  C   UNL     1     -43.133 -26.484   0.483  1.00  0.00     0.028 A 
HETATM   16  C   UNL     1     -43.811 -25.992  -0.615  1.00  0.00     0.049 A 
HETATM   17  N   UNL     1     -43.248 -24.919  -1.378  1.00  0.00    -0.102 NA
HETATM   18  C   UNL     1     -45.035 -26.505  -0.994  1.00  0.00     0.064 A 
HETATM   19  C   UNL     1     -45.569 -27.522  -0.240  1.00  0.00     0.083 A 
BRANCH  19  20
HETATM   20  O   UNL     1     -46.794 -28.029  -0.639  1.00  0.00    -0.360 OA
ATOM     21  HO  UNL     1     -47.574 -27.485  -0.641  1.00  0.00     0.217 HD
ENDBRANCH  19  20
ENDBRANCH  11  13
ENDBRANCH  10  11
ENDBRANCH   9  10
BRANCH   6  22
HETATM   22  C   UNL     1     -48.687 -30.811   0.928  1.00  0.00     0.180 C 
HETATM   23  O   UNL     1     -48.908 -32.023   1.149  1.00  0.00    -0.648 OA
HETATM   24  O   UNL     1     -48.342 -30.421  -0.209  1.00  0.00    -0.648 OA
ENDBRANCH   6  22
TORSDOF 5
ENDMDL
MODEL 10
REMARK VINA RESULT:    -7.561      3.235      4.851
REMARK INTER + INTRA:         -10.612
REMARK INTER:                  -9.384
REMARK INTRA:                  -1.229
REMARK UNBOUND:                -1.062
REMARK  5 active torsions:
REMARK  status: ('A' for Active; 'I' for Inactive)
REMARK    1  A    between atoms: C_6  and  C_7 
REMARK    2  A    between atoms: C_12  and  O_19 
REMARK    3  A    between atoms: C_13  and  C_14 
REMARK    4  A    between atoms: C_14  and  O_21 
REMARK    5  A    between atoms: C_15  and  O_21 
ROOT
HETATM    1  C   UNL     1     -49.925 -32.611   1.523  1.00  0.00     0.001 A 
HETATM    2  C   UNL     1     -47.694 -31.782   1.449  1.00  0.00    -0.022 A 
HETATM    3  C   UNL     1     -49.052 -31.551   1.624  1.00  0.00     0.010 A 
HETATM    4  C   UNL     1     -47.229 -33.072   1.181  1.00  0.00    -0.048 A 
HETATM    5  C   UNL     1     -45.695 -33.039   1.059  1.00  0.00     0.057 C 
HETATM    6  C   UNL     1     -45.410 -31.569   0.827  1.00  0.00     0.125 C 
HETATM    7  C   UNL     1     -48.114 -34.128   1.087  1.00  0.00     0.008 A 
HETATM    8  C   UNL     1     -49.460 -33.877   1.262  1.00  0.00     0.001 A 
HETATM    9  C   UNL     1     -46.507 -30.810   1.500  1.00  0.00     0.180 C 
ENDROOT
BRANCH   9  10
HETATM   10  O   UNL     1     -46.707 -29.660   0.719  1.00  0.00    -0.306 OA
BRANCH  10  11
HETATM   11  C   UNL     1     -46.617 -28.403   1.286  1.00  0.00     0.296 C 
HETATM   12  O   UNL     1     -47.219 -28.126   2.268  1.00  0.00    -0.259 OA
BRANCH  11  13
HETATM   13  C   UNL     1     -45.651 -27.476   0.587  1.00  0.00     0.072 A 
HETATM   14  C   UNL     1     -46.054 -26.729  -0.501  1.00  0.00     0.022 A 
HETATM   15  C   UNL     1     -45.139 -25.915  -1.143  1.00  0.00     0.028 A 
HETATM   16  C   UNL     1     -43.832 -25.870  -0.697  1.00  0.00     0.049 A 
HETATM   17  N   UNL     1     -42.877 -25.044  -1.372  1.00  0.00    -0.102 NA
HETATM   18  C   UNL     1     -43.416 -26.617   0.386  1.00  0.00     0.064 A 
HETATM   19  C   UNL     1     -44.340 -27.418   1.011  1.00  0.00     0.083 A 
BRANCH  19  20
HETATM   20  O   UNL     1     -43.906 -28.155   2.100  1.00  0.00    -0.360 OA
ATOM     21  HO  UNL     1     -43.549 -29.029   1.991  1.00  0.00     0.217 HD
ENDBRANCH  19  20
ENDBRANCH  11  13
ENDBRANCH  10  11
ENDBRANCH   9  10
BRANCH   6  22
HETATM   22  C   UNL     1     -44.034 -31.153   1.333  1.00  0.00     0.180 C 
HETATM   23  O   UNL     1     -43.160 -30.750   0.534  1.00  0.00    -0.648 OA
HETATM   24  O   UNL     1     -43.790 -31.241   2.557  1.00  0.00    -0.648 OA
ENDBRANCH   6  22
TORSDOF 5
ENDMDL
MODEL 11
REMARK VINA RESULT:    -7.517      5.029      6.646
REMARK INTER + INTRA:         -10.556
REMARK INTER:                  -9.417
REMARK INTRA:                  -1.140
REMARK UNBOUND:                -1.062
REMARK  5 active torsions:
REMARK  status: ('A' for Active; 'I' for Inactive)
REMARK    1  A    between atoms: C_6  and  C_7 
REMARK    2  A    between atoms: C_12  and  O_19 
REMARK    3  A    between atoms: C_13  and  C_14 
REMARK    4  A    between atoms: C_14  and  O_21 
REMARK    5  A    between atoms: C_15  and  O_21 
ROOT
HETATM    1  C   UNL     1     -48.063 -29.741   3.515  1.00  0.00     0.001 A 
HETATM    2  C   UNL     1     -45.742 -29.920   3.012  1.00  0.00    -0.022 A 
HETATM    3  C   UNL     1     -47.064 -30.183   2.676  1.00  0.00     0.010 A 
HETATM    4  C   UNL     1     -45.440 -29.215   4.181  1.00  0.00    -0.048 A 
HETATM    5  C   UNL     1     -43.913 -29.049   4.288  1.00  0.00     0.057 C 
HETATM    6  C   UNL     1     -43.395 -30.108   3.336  1.00  0.00     0.125 C 
HETATM    7  C   UNL     1     -46.452 -28.774   5.011  1.00  0.00     0.008 A 
HETATM    8  C   UNL     1     -47.758 -29.046   4.661  1.00  0.00     0.001 A 
HETATM    9  C   UNL     1     -44.442 -30.286   2.284  1.00  0.00     0.180 C 
ENDROOT
BRANCH   9  10
HETATM   10  O   UNL     1     -44.382 -31.640   1.915  1.00  0.00    -0.306 OA
BRANCH  10  11
HETATM   11  C   UNL     1     -44.287 -32.001   0.585  1.00  0.00     0.296 C 
HETATM   12  O   UNL     1     -43.499 -31.490  -0.137  1.00  0.00    -0.259 OA
BRANCH  11  13
HETATM   13  C   UNL     1     -45.213 -33.123   0.180  1.00  0.00     0.072 A 
HETATM   14  C   UNL     1     -46.296 -33.462   0.965  1.00  0.00     0.022 A 
HETATM   15  C   UNL     1     -47.107 -34.516   0.588  1.00  0.00     0.028 A 
HETATM   16  C   UNL     1     -46.814 -35.227  -0.561  1.00  0.00     0.049 A 
HETATM   17  N   UNL     1     -47.639 -36.333  -0.944  1.00  0.00    -0.102 NA
HETATM   18  C   UNL     1     -45.730 -34.902  -1.351  1.00  0.00     0.064 A 
HETATM   19  C   UNL     1     -44.939 -33.850  -0.960  1.00  0.00     0.083 A 
BRANCH  19  20
HETATM   20  O   UNL     1     -43.860 -33.535  -1.768  1.00  0.00    -0.360 OA
ATOM     21  HO  UNL     1     -43.869 -32.762  -2.319  1.00  0.00     0.217 HD
ENDBRANCH  19  20
ENDBRANCH  11  13
ENDBRANCH  10  11
ENDBRANCH   9  10
BRANCH   6  22
HETATM   22  C   UNL     1     -42.041 -29.744   2.738  1.00  0.00     0.180 C 
HETATM   23  O   UNL     1     -40.998 -30.298   3.150  1.00  0.00    -0.648 OA
HETATM   24  O   UNL     1     -41.991 -28.870   1.845  1.00  0.00    -0.648 OA
ENDBRANCH   6  22
TORSDOF 5
ENDMDL
MODEL 12
REMARK VINA RESULT:    -7.480      2.790      3.694
REMARK INTER + INTRA:         -10.510
REMARK INTER:                  -9.260
REMARK INTRA:                  -1.249
REMARK UNBOUND:                -1.062
REMARK  5 active torsions:
REMARK  status: ('A' for Active; 'I' for Inactive)
REMARK    1  A    between atoms: C_6  and  C_7 
REMARK    2  A    between atoms: C_12  and  O_19 
REMARK    3  A    between atoms: C_13  and  C_14 
REMARK    4  A    between atoms: C_14  and  O_21 
REMARK    5  A    between atoms: C_15  and  O_21 
ROOT
HETATM    1  C   UNL     1     -41.287 -30.546   1.539  1.00  0.00     0.001 A 
HETATM    2  C   UNL     1     -43.647 -30.809   1.351  1.00  0.00    -0.022 A 
HETATM    3  C   UNL     1     -42.532 -29.981   1.373  1.00  0.00     0.010 A 
HETATM    4  C   UNL     1     -43.499 -32.191   1.493  1.00  0.00    -0.048 A 
HETATM    5  C   UNL     1     -44.884 -32.857   1.409  1.00  0.00     0.057 C 
HETATM    6  C   UNL     1     -45.827 -31.699   1.670  1.00  0.00     0.125 C 
HETATM    7  C   UNL     1     -42.245 -32.746   1.655  1.00  0.00     0.008 A 
HETATM    8  C   UNL     1     -41.150 -31.906   1.676  1.00  0.00     0.001 A 
HETATM    9  C   UNL     1     -45.134 -30.467   1.188  1.00  0.00     0.180 C 
ENDROOT
BRANCH   9  10
HETATM   10  O   UNL     1     -45.556 -29.435   2.042  1.00  0.00    -0.306 OA
BRANCH  10  11
HETATM   11  C   UNL     1     -46.145 -28.296   1.528  1.00  0.00     0.296 C 
HETATM   12  O   UNL     1     -47.271 -28.021   1.771  1.00  0.00    -0.259 OA
BRANCH  11  13
HETATM   13  C   UNL     1     -45.214 -27.432   0.710  1.00  0.00     0.072 A 
HETATM   14  C   UNL     1     -44.008 -27.009   1.230  1.00  0.00     0.022 A 
HETATM   15  C   UNL     1     -43.190 -26.190   0.472  1.00  0.00     0.028 A 
HETATM   16  C   UNL     1     -43.598 -25.793  -0.787  1.00  0.00     0.049 A 
HETATM   17  N   UNL     1     -42.764 -24.929  -1.566  1.00  0.00    -0.102 NA
HETATM   18  C   UNL     1     -44.805 -26.205  -1.314  1.00  0.00     0.064 A 
HETATM   19  C   UNL     1     -45.601 -27.019  -0.547  1.00  0.00     0.083 A 
BRANCH  19  20
HETATM   20  O   UNL     1     -46.805 -27.426  -1.095  1.00  0.00    -0.360 OA
ATOM     21  HO  UNL     1     -47.132 -27.045  -1.902  1.00  0.00     0.217 HD
ENDBRANCH  19  20
ENDBRANCH  11  13
ENDBRANCH  10  11
ENDBRANCH   9  10
BRANCH   6  22
HETATM   22  C   UNL     1     -47.184 -31.889   1.004  1.00  0.00     0.180 C 
HETATM   23  O   UNL     1     -47.260 -32.334  -0.163  1.00  0.00    -0.648 OA
HETATM   24  O   UNL     1     -48.216 -31.575   1.636  1.00  0.00    -0.648 OA
ENDBRANCH   6  22
TORSDOF 5
ENDMDL
MODEL 13
REMARK VINA RESULT:    -7.462      2.370      3.621
REMARK INTER + INTRA:         -10.487
REMARK INTER:                  -9.732
REMARK INTRA:                  -0.755
REMARK UNBOUND:                -1.062
REMARK  5 active torsions:
REMARK  status: ('A' for Active; 'I' for Inactive)
REMARK    1  A    between atoms: C_6  and  C_7 
REMARK    2  A    between atoms: C_12  and  O_19 
REMARK    3  A    between atoms: C_13  and  C_14 
REMARK    4  A    between atoms: C_14  and  O_21 
REMARK    5  A    between atoms: C_15  and  O_21 
ROOT
HETATM    1  C   UNL     1     -48.052 -28.462   6.417  1.00  0.00     0.001 A 
HETATM    2  C   UNL     1     -48.363 -28.926   4.102  1.00  0.00    -0.022 A 
HETATM    3  C   UNL     1     -47.525 -28.564   5.148  1.00  0.00     0.010 A 
HETATM    4  C   UNL     1     -49.716 -29.183   4.340  1.00  0.00    -0.048 A 
HETATM    5  C   UNL     1     -50.394 -29.581   3.017  1.00  0.00     0.057 C 
HETATM    6  C   UNL     1     -49.416 -29.075   1.976  1.00  0.00     0.125 C 
HETATM    7  C   UNL     1     -50.231 -29.082   5.618  1.00  0.00     0.008 A 
HETATM    8  C   UNL     1     -49.382 -28.720   6.644  1.00  0.00     0.001 A 
HETATM    9  C   UNL     1     -48.062 -29.112   2.608  1.00  0.00     0.180 C 
ENDROOT
BRANCH   9  10
HETATM   10  O   UNL     1     -47.355 -28.033   2.053  1.00  0.00    -0.306 OA
BRANCH  10  11
HETATM   11  C   UNL     1     -46.432 -28.243   1.047  1.00  0.00     0.296 C 
HETATM   12  O   UNL     1     -46.689 -28.008  -0.085  1.00  0.00    -0.259 OA
BRANCH  11  13
HETATM   13  C   UNL     1     -45.083 -28.720   1.533  1.00  0.00     0.072 A 
HETATM   14  C   UNL     1     -44.973 -29.447   2.701  1.00  0.00     0.022 A 
HETATM   15  C   UNL     1     -43.723 -29.842   3.141  1.00  0.00     0.028 A 
HETATM   16  C   UNL     1     -42.600 -29.490   2.416  1.00  0.00     0.049 A 
HETATM   17  N   UNL     1     -41.302 -29.878   2.879  1.00  0.00    -0.102 NA
HETATM   18  C   UNL     1     -42.698 -28.757   1.250  1.00  0.00     0.064 A 
HETATM   19  C   UNL     1     -43.948 -28.377   0.830  1.00  0.00     0.083 A 
BRANCH  19  20
HETATM   20  O   UNL     1     -44.027 -27.648  -0.345  1.00  0.00    -0.360 OA
ATOM     21  HO  UNL     1     -43.602 -27.949  -1.139  1.00  0.00     0.217 HD
ENDBRANCH  19  20
ENDBRANCH  11  13
ENDBRANCH  10  11
ENDBRANCH   9  10
BRANCH   6  22
HETATM   22  C   UNL     1     -49.465 -29.884   0.686  1.00  0.00     0.180 C 
HETATM   23  O   UNL     1     -49.168 -31.100   0.688  1.00  0.00    -0.648 OA
HETATM   24  O   UNL     1     -49.789 -29.308  -0.376  1.00  0.00    -0.648 OA
ENDBRANCH   6  22
TORSDOF 5
ENDMDL
MODEL 14
REMARK VINA RESULT:    -7.387      3.226      6.064
REMARK INTER + INTRA:         -10.392
REMARK INTER:                  -9.589
REMARK INTRA:                  -0.803
REMARK UNBOUND:                -1.062
REMARK  5 active torsions:
REMARK  status: ('A' for Active; 'I' for Inactive)
REMARK    1  A    between atoms: C_6  and  C_7 
REMARK    2  A    between atoms: C_12  and  O_19 
REMARK    3  A    between atoms: C_13  and  C_14 
REMARK    4  A    between atoms: C_14  and  O_21 
REMARK    5  A    between atoms: C_15  and  O_21 
ROOT
HETATM    1  C   UNL     1     -42.147 -31.030   3.030  1.00  0.00     0.001 A 
HETATM    2  C   UNL     1     -43.684 -29.423   2.178  1.00  0.00    -0.022 A 
HETATM    3  C   UNL     1     -43.323 -30.326   3.168  1.00  0.00     0.010 A 
HETATM    4  C   UNL     1     -42.861 -29.233   1.065  1.00  0.00    -0.048 A 
HETATM    5  C   UNL     1     -43.489 -28.166   0.150  1.00  0.00     0.057 C 
HETATM    6  C   UNL     1     -44.930 -28.130   0.620  1.00  0.00     0.125 C 
HETATM    7  C   UNL     1     -41.682 -29.941   0.940  1.00  0.00     0.008 A 
HETATM    8  C   UNL     1     -41.342 -30.836   1.934  1.00  0.00     0.001 A 
HETATM    9  C   UNL     1     -44.917 -28.516   2.063  1.00  0.00     0.180 C 
ENDROOT
BRANCH   9  10
HETATM   10  O   UNL     1     -46.123 -29.201   2.283  1.00  0.00    -0.306 OA
BRANCH  10  11
HETATM   11  C   UNL     1     -46.714 -29.200   3.532  1.00  0.00     0.296 C 
HETATM   12  O   UNL     1     -46.137 -28.797   4.485  1.00  0.00    -0.259 OA
BRANCH  11  13
HETATM   13  C   UNL     1     -48.145 -29.683   3.542  1.00  0.00     0.072 A 
HETATM   14  C   UNL     1     -48.530 -30.760   2.770  1.00  0.00     0.022 A 
HETATM   15  C   UNL     1     -49.853 -31.160   2.772  1.00  0.00     0.028 A 
HETATM   16  C   UNL     1     -50.776 -30.468   3.533  1.00  0.00     0.049 A 
HETATM   17  N   UNL     1     -52.151 -30.865   3.521  1.00  0.00    -0.102 NA
HETATM   18  C   UNL     1     -50.404 -29.385   4.304  1.00  0.00     0.064 A 
HETATM   19  C   UNL     1     -49.085 -29.005   4.289  1.00  0.00     0.083 A 
BRANCH  19  20
HETATM   20  O   UNL     1     -48.729 -27.921   5.074  1.00  0.00    -0.360 OA
ATOM     21  HO  UNL     1     -49.386 -27.331   5.423  1.00  0.00     0.217 HD
ENDBRANCH  19  20
ENDBRANCH  11  13
ENDBRANCH  10  11
ENDBRANCH   9  10
BRANCH   6  22
HETATM   22  C   UNL     1     -45.583 -26.771   0.398  1.00  0.00     0.180 C 
HETATM   23  O   UNL     1     -44.889 -25.778   0.087  1.00  0.00    -0.648 OA
HETATM   24  O   UNL     1     -46.819 -26.664   0.551  1.00  0.00    -0.648 OA
ENDBRANCH   6  22
TORSDOF 5
ENDMDL
MODEL 15
REMARK VINA RESULT:    -7.359      3.336      4.691
REMARK INTER + INTRA:         -10.357
REMARK INTER:                  -8.967
REMARK INTRA:                  -1.390
REMARK UNBOUND:                -1.062
REMARK  5 active torsions:
REMARK  status: ('A' for Active; 'I' for Inactive)
REMARK    1  A    between atoms: C_6  and  C_7 
REMARK    2  A    between atoms: C_12  and  O_19 
REMARK    3  A    between atoms: C_13  and  C_14 
REMARK    4  A    between atoms: C_14  and  O_21 
REMARK    5  A    between atoms: C_15  and  O_21 
ROOT
HETATM    1  C   UNL     1     -47.268 -28.590   4.698  1.00  0.00     0.001 A 
HETATM    2  C   UNL     1     -48.010 -30.216   3.124  1.00  0.00    -0.022 A 
HETATM    3  C   UNL     1     -46.971 -29.508   3.714  1.00  0.00     0.010 A 
HETATM    4  C   UNL     1     -49.329 -29.999   3.530  1.00  0.00    -0.048 A 
HETATM    5  C   UNL     1     -50.261 -30.928   2.731  1.00  0.00     0.057 C 
HETATM    6  C   UNL     1     -49.400 -31.329   1.550  1.00  0.00     0.125 C 
HETATM    7  C   UNL     1     -49.612 -29.079   4.521  1.00  0.00     0.008 A 
HETATM    8  C   UNL     1     -48.567 -28.384   5.094  1.00  0.00     0.001 A 
HETATM    9  C   UNL     1     -47.983 -31.281   2.019  1.00  0.00     0.180 C 
ENDROOT
BRANCH   9  10
HETATM   10  O   UNL     1     -47.226 -30.892   0.902  1.00  0.00    -0.306 OA
BRANCH  10  11
HETATM   11  C   UNL     1     -46.102 -31.606   0.533  1.00  0.00     0.296 C 
HETATM   12  O   UNL     1     -46.164 -32.487  -0.257  1.00  0.00    -0.259 OA
BRANCH  11  13
HETATM   13  C   UNL     1     -44.821 -31.116   1.167  1.00  0.00     0.072 A 
HETATM   14  C   UNL     1     -44.417 -29.806   1.016  1.00  0.00     0.022 A 
HETATM   15  C   UNL     1     -43.223 -29.394   1.579  1.00  0.00     0.028 A 
HETATM   16  C   UNL     1     -42.442 -30.301   2.269  1.00  0.00     0.049 A 
HETATM   17  N   UNL     1     -41.195 -29.884   2.834  1.00  0.00    -0.102 NA
HETATM   18  C   UNL     1     -42.833 -31.616   2.420  1.00  0.00     0.064 A 
HETATM   19  C   UNL     1     -44.023 -32.005   1.856  1.00  0.00     0.083 A 
BRANCH  19  20
HETATM   20  O   UNL     1     -44.402 -33.326   2.023  1.00  0.00    -0.360 OA
ATOM     21  HO  UNL     1     -44.981 -33.586   2.730  1.00  0.00     0.217 HD
ENDBRANCH  19  20
ENDBRANCH  11  13
ENDBRANCH  10  11
ENDBRANCH   9  10
BRANCH   6  22
HETATM   22  C   UNL     1     -49.772 -32.697   0.994  1.00  0.00     0.180 C 
HETATM   23  O   UNL     1     -50.348 -33.541   1.717  1.00  0.00    -0.648 OA
HETATM   24  O   UNL     1     -49.474 -32.969  -0.190  1.00  0.00    -0.648 OA
ENDBRANCH   6  22
TORSDOF 5
ENDMDL
MODEL 16
REMARK VINA RESULT:    -7.346      4.447      6.452
REMARK INTER + INTRA:         -10.341
REMARK INTER:                  -9.025
REMARK INTRA:                  -1.315
REMARK UNBOUND:                -1.062
REMARK  5 active torsions:
REMARK  status: ('A' for Active; 'I' for Inactive)
REMARK    1  A    between atoms: C_6  and  C_7 
REMARK    2  A    between atoms: C_12  and  O_19 
REMARK    3  A    between atoms: C_13  and  C_14 
REMARK    4  A    between atoms: C_14  and  O_21 
REMARK    5  A    between atoms: C_15  and  O_21 
ROOT
HETATM    1  C   UNL     1     -48.506 -33.330   0.858  1.00  0.00     0.001 A 
HETATM    2  C   UNL     1     -46.283 -32.525   1.145  1.00  0.00    -0.022 A 
HETATM    3  C   UNL     1     -47.652 -32.320   1.245  1.00  0.00     0.010 A 
HETATM    4  C   UNL     1     -45.786 -33.738   0.663  1.00  0.00    -0.048 A 
HETATM    5  C   UNL     1     -44.248 -33.697   0.683  1.00  0.00     0.057 C 
HETATM    6  C   UNL     1     -43.955 -32.213   0.777  1.00  0.00     0.125 C 
HETATM    7  C   UNL     1     -46.652 -34.745   0.283  1.00  0.00     0.008 A 
HETATM    8  C   UNL     1     -48.010 -34.521   0.388  1.00  0.00     0.001 A 
HETATM    9  C   UNL     1     -45.112 -31.594   1.492  1.00  0.00     0.180 C 
ENDROOT
BRANCH   9  10
HETATM   10  O   UNL     1     -45.253 -30.309   0.945  1.00  0.00    -0.306 OA
BRANCH  10  11
HETATM   11  C   UNL     1     -44.898 -29.192   1.677  1.00  0.00     0.296 C 
HETATM   12  O   UNL     1     -44.219 -28.340   1.211  1.00  0.00    -0.259 OA
BRANCH  11  13
HETATM   13  C   UNL     1     -45.502 -29.140   3.060  1.00  0.00     0.072 A 
HETATM   14  C   UNL     1     -44.706 -29.250   4.182  1.00  0.00     0.022 A 
HETATM   15  C   UNL     1     -45.289 -29.234   5.435  1.00  0.00     0.028 A 
HETATM   16  C   UNL     1     -46.662 -29.123   5.549  1.00  0.00     0.049 A 
HETATM   17  N   UNL     1     -47.272 -29.127   6.844  1.00  0.00    -0.102 NA
HETATM   18  C   UNL     1     -47.470 -29.019   4.435  1.00  0.00     0.064 A 
HETATM   19  C   UNL     1     -46.870 -29.035   3.199  1.00  0.00     0.083 A 
BRANCH  19  20
HETATM   20  O   UNL     1     -47.696 -28.923   2.093  1.00  0.00    -0.360 OA
ATOM     21  HO  UNL     1     -47.614 -29.517   1.357  1.00  0.00     0.217 HD
ENDBRANCH  19  20
ENDBRANCH  11  13
ENDBRANCH  10  11
ENDBRANCH   9  10
BRANCH   6  22
HETATM   22  C   UNL     1     -42.632 -31.921   1.473  1.00  0.00     0.180 C 
HETATM   23  O   UNL     1     -41.576 -31.818   0.809  1.00  0.00    -0.648 OA
HETATM   24  O   UNL     1     -42.617 -31.806   2.718  1.00  0.00    -0.648 OA
ENDBRANCH   6  22
TORSDOF 5
ENDMDL
MODEL 17
REMARK VINA RESULT:    -7.322      3.117      4.762
REMARK INTER + INTRA:         -10.311
REMARK INTER:                  -9.187
REMARK INTRA:                  -1.124
REMARK UNBOUND:                -1.062
REMARK  5 active torsions:
REMARK  status: ('A' for Active; 'I' for Inactive)
REMARK    1  A    between atoms: C_6  and  C_7 
REMARK    2  A    between atoms: C_12  and  O_19 
REMARK    3  A    between atoms: C_13  and  C_14 
REMARK    4  A    between atoms: C_14  and  O_21 
REMARK    5  A    between atoms: C_15  and  O_21 
ROOT
HETATM    1  C   UNL     1     -50.363 -28.763   3.858  1.00  0.00     0.001 A 
HETATM    2  C   UNL     1     -47.999 -29.021   3.990  1.00  0.00    -0.022 A 
HETATM    3  C   UNL     1     -49.151 -28.917   3.221  1.00  0.00     0.010 A 
HETATM    4  C   UNL     1     -48.076 -28.966   5.384  1.00  0.00    -0.048 A 
HETATM    5  C   UNL     1     -46.658 -29.083   5.972  1.00  0.00     0.057 C 
HETATM    6  C   UNL     1     -45.865 -29.663   4.817  1.00  0.00     0.125 C 
HETATM    7  C   UNL     1     -49.296 -28.807   6.010  1.00  0.00     0.008 A 
HETATM    8  C   UNL     1     -50.430 -28.707   5.229  1.00  0.00     0.001 A 
HETATM    9  C   UNL     1     -46.535 -29.201   3.564  1.00  0.00     0.180 C 
ENDROOT
BRANCH   9  10
HETATM   10  O   UNL     1     -46.358 -30.238   2.634  1.00  0.00    -0.306 OA
BRANCH  10  11
HETATM   11  C   UNL     1     -45.725 -30.000   1.430  1.00  0.00     0.296 C 
HETATM   12  O   UNL     1     -46.218 -29.313   0.600  1.00  0.00    -0.259 OA
BRANCH  11  13
HETATM   13  C   UNL     1     -44.356 -30.627   1.314  1.00  0.00     0.072 A 
HETATM   14  C   UNL     1     -44.153 -31.945   1.669  1.00  0.00     0.022 A 
HETATM   15  C   UNL     1     -42.882 -32.483   1.585  1.00  0.00     0.028 A 
HETATM   16  C   UNL     1     -41.830 -31.693   1.164  1.00  0.00     0.049 A 
HETATM   17  N   UNL     1     -40.509 -32.241   1.096  1.00  0.00    -0.102 NA
HETATM   18  C   UNL     1     -42.020 -30.372   0.813  1.00  0.00     0.064 A 
HETATM   19  C   UNL     1     -43.290 -29.856   0.901  1.00  0.00     0.083 A 
BRANCH  19  20
HETATM   20  O   UNL     1     -43.462 -28.531   0.538  1.00  0.00    -0.360 OA
ATOM     21  HO  UNL     1     -43.519 -28.275  -0.375  1.00  0.00     0.217 HD
ENDBRANCH  19  20
ENDBRANCH  11  13
ENDBRANCH  10  11
ENDBRANCH   9  10
BRANCH   6  22
HETATM   22  C   UNL     1     -44.395 -29.264   4.859  1.00  0.00     0.180 C 
HETATM   23  O   UNL     1     -43.516 -30.036   4.415  1.00  0.00    -0.648 OA
HETATM   24  O   UNL     1     -44.083 -28.162   5.361  1.00  0.00    -0.648 OA
ENDBRANCH   6  22
TORSDOF 5
ENDMDL
MODEL 18
REMARK VINA RESULT:    -7.278      3.753      6.788
REMARK INTER + INTRA:         -10.254
REMARK INTER:                  -9.261
REMARK INTRA:                  -0.994
REMARK UNBOUND:                -1.062
REMARK  5 active torsions:
REMARK  status: ('A' for Active; 'I' for Inactive)
REMARK    1  A    between atoms: C_6  and  C_7 
REMARK    2  A    between atoms: C_12  and  O_19 
REMARK    3  A    between atoms: C_13  and  C_14 
REMARK    4  A    between atoms: C_14  and  O_21 
REMARK    5  A    between atoms: C_15  and  O_21 
ROOT
HETATM    1  C   UNL     1     -46.016 -26.361  -0.968  1.00  0.00     0.001 A 
HETATM    2  C   UNL     1     -45.095 -28.169   0.278  1.00  0.00    -0.022 A 
HETATM    3  C   UNL     1     -46.148 -27.630  -0.448  1.00  0.00     0.010 A 
HETATM    4  C   UNL     1     -43.923 -27.433   0.472  1.00  0.00    -0.048 A 
HETATM    5  C   UNL     1     -42.925 -28.277   1.285  1.00  0.00     0.057 C 
HETATM    6  C   UNL     1     -43.813 -29.338   1.904  1.00  0.00     0.125 C 
HETATM    7  C   UNL     1     -43.801 -26.163  -0.058  1.00  0.00     0.008 A 
HETATM    8  C   UNL     1     -44.860 -25.644  -0.776  1.00  0.00     0.001 A 
HETATM    9  C   UNL     1     -44.961 -29.534   0.967  1.00  0.00     0.180 C 
ENDROOT
BRANCH   9  10
HETATM   10  O   UNL     1     -46.063 -29.850   1.778  1.00  0.00    -0.306 OA
BRANCH  10  11
HETATM   11  C   UNL     1     -46.708 -31.064   1.644  1.00  0.00     0.296 C 
HETATM   12  O   UNL     1     -46.151 -32.012   1.204  1.00  0.00    -0.259 OA
BRANCH  11  13
HETATM   13  C   UNL     1     -48.127 -31.073   2.162  1.00  0.00     0.072 A 
HETATM   14  C   UNL     1     -48.526 -30.181   3.137  1.00  0.00     0.022 A 
HETATM   15  C   UNL     1     -49.821 -30.234   3.618  1.00  0.00     0.028 A 
HETATM   16  C   UNL     1     -50.694 -31.188   3.130  1.00  0.00     0.049 A 
HETATM   17  N   UNL     1     -52.029 -31.260   3.641  1.00  0.00    -0.102 NA
HETATM   18  C   UNL     1     -50.304 -32.090   2.161  1.00  0.00     0.064 A 
HETATM   19  C   UNL     1     -49.014 -32.019   1.694  1.00  0.00     0.083 A 
BRANCH  19  20
HETATM   20  O   UNL     1     -48.643 -32.928   0.718  1.00  0.00    -0.360 OA
ATOM     21  HO  UNL     1     -47.728 -33.101   0.530  1.00  0.00     0.217 HD
ENDBRANCH  19  20
ENDBRANCH  11  13
ENDBRANCH  10  11
ENDBRANCH   9  10
BRANCH   6  22
HETATM   22  C   UNL     1     -43.068 -30.639   2.175  1.00  0.00     0.180 C 
HETATM   23  O   UNL     1     -42.642 -31.335   1.226  1.00  0.00    -0.648 OA
HETATM   24  O   UNL     1     -42.907 -31.007   3.359  1.00  0.00    -0.648 OA
ENDBRANCH   6  22
TORSDOF 5
ENDMDL
MODEL 19
REMARK VINA RESULT:    -7.257      3.874      5.441
REMARK INTER + INTRA:         -10.229
REMARK INTER:                  -9.138
REMARK INTRA:                  -1.091
REMARK UNBOUND:                -1.062
REMARK  5 active torsions:
REMARK  status: ('A' for Active; 'I' for Inactive)
REMARK    1  A    between atoms: C_6  and  C_7 
REMARK    2  A    between atoms: C_12  and  O_19 
REMARK    3  A    between atoms: C_13  and  C_14 
REMARK    4  A    between atoms: C_14  and  O_21 
REMARK    5  A    between atoms: C_15  and  O_21 
ROOT
HETATM    1  C   UNL     1     -49.694 -28.581   5.102  1.00  0.00     0.001 A 
HETATM    2  C   UNL     1     -47.540 -29.048   4.200  1.00  0.00    -0.022 A 
HETATM    3  C   UNL     1     -48.904 -28.872   4.011  1.00  0.00     0.010 A 
HETATM    4  C   UNL     1     -46.984 -28.927   5.476  1.00  0.00    -0.048 A 
HETATM    5  C   UNL     1     -45.463 -29.147   5.387  1.00  0.00     0.057 C 
HETATM    6  C   UNL     1     -45.305 -29.845   4.051  1.00  0.00     0.125 C 
HETATM    7  C   UNL     1     -47.786 -28.631   6.561  1.00  0.00     0.008 A 
HETATM    8  C   UNL     1     -49.140 -28.461   6.354  1.00  0.00     0.001 A 
HETATM    9  C   UNL     1     -46.433 -29.377   3.189  1.00  0.00     0.180 C 
ENDROOT
BRANCH   9  10
HETATM   10  O   UNL     1     -46.753 -30.465   2.360  1.00  0.00    -0.306 OA
BRANCH  10  11
HETATM   11  C   UNL     1     -46.323 -30.498   1.048  1.00  0.00     0.296 C 
HETATM   12  O   UNL     1     -46.285 -29.515   0.387  1.00  0.00    -0.259 OA
BRANCH  11  13
HETATM   13  C   UNL     1     -45.856 -31.857   0.582  1.00  0.00     0.072 A 
HETATM   14  C   UNL     1     -44.823 -32.506   1.228  1.00  0.00     0.022 A 
HETATM   15  C   UNL     1     -44.393 -33.734   0.759  1.00  0.00     0.028 A 
HETATM   16  C   UNL     1     -44.990 -34.287  -0.358  1.00  0.00     0.049 A 
HETATM   17  N   UNL     1     -44.534 -35.547  -0.859  1.00  0.00    -0.102 NA
HETATM   18  C   UNL     1     -46.019 -33.644  -1.016  1.00  0.00     0.064 A 
HETATM   19  C   UNL     1     -46.433 -32.426  -0.533  1.00  0.00     0.083 A 
BRANCH  19  20
HETATM   20  O   UNL     1     -47.470 -31.799  -1.202  1.00  0.00    -0.360 OA
ATOM     21  HO  UNL     1     -47.469 -31.723  -2.149  1.00  0.00     0.217 HD
ENDBRANCH  19  20
ENDBRANCH  11  13
ENDBRANCH  10  11
ENDBRANCH   9  10
BRANCH   6  22
HETATM   22  C   UNL     1     -43.949 -29.580   3.410  1.00  0.00     0.180 C 
HETATM   23  O   UNL     1     -43.784 -28.590   2.662  1.00  0.00    -0.648 OA
HETATM   24  O   UNL     1     -43.011 -30.378   3.629  1.00  0.00    -0.648 OA
ENDBRANCH   6  22
TORSDOF 5
ENDMDL
MODEL 20
REMARK VINA RESULT:    -7.218      3.481      5.014
REMARK INTER + INTRA:         -10.179
REMARK INTER:                  -8.950
REMARK INTRA:                  -1.229
REMARK UNBOUND:                -1.062
REMARK  5 active torsions:
REMARK  status: ('A' for Active; 'I' for Inactive)
REMARK    1  A    between atoms: C_6  and  C_7 
REMARK    2  A    between atoms: C_12  and  O_19 
REMARK    3  A    between atoms: C_13  and  C_14 
REMARK    4  A    between atoms: C_14  and  O_21 
REMARK    5  A    between atoms: C_15  and  O_21 
ROOT
HETATM    1  C   UNL     1     -42.728 -31.107   0.593  1.00  0.00     0.001 A 
HETATM    2  C   UNL     1     -44.106 -30.306   2.363  1.00  0.00    -0.022 A 
HETATM    3  C   UNL     1     -43.977 -30.753   1.055  1.00  0.00     0.010 A 
HETATM    4  C   UNL     1     -42.984 -30.223   3.192  1.00  0.00    -0.048 A 
HETATM    5  C   UNL     1     -43.420 -29.724   4.581  1.00  0.00     0.057 C 
HETATM    6  C   UNL     1     -44.779 -29.111   4.304  1.00  0.00     0.125 C 
HETATM    7  C   UNL     1     -41.738 -30.584   2.718  1.00  0.00     0.008 A 
HETATM    8  C   UNL     1     -41.630 -31.024   1.415  1.00  0.00     0.001 A 
HETATM    9  C   UNL     1     -45.350 -29.849   3.137  1.00  0.00     0.180 C 
ENDROOT
BRANCH   9  10
HETATM   10  O   UNL     1     -46.118 -28.907   2.433  1.00  0.00    -0.306 OA
BRANCH  10  11
HETATM   11  C   UNL     1     -47.466 -29.122   2.217  1.00  0.00     0.296 C 
HETATM   12  O   UNL     1     -48.285 -28.389   2.659  1.00  0.00    -0.259 OA
BRANCH  11  13
HETATM   13  C   UNL     1     -47.771 -30.308   1.332  1.00  0.00     0.072 A 
HETATM   14  C   UNL     1     -48.208 -31.498   1.876  1.00  0.00     0.022 A 
HETATM   15  C   UNL     1     -48.446 -32.578   1.046  1.00  0.00     0.028 A 
HETATM   16  C   UNL     1     -48.230 -32.457  -0.313  1.00  0.00     0.049 A 
HETATM   17  N   UNL     1     -48.456 -33.579  -1.173  1.00  0.00    -0.102 NA
HETATM   18  C   UNL     1     -47.787 -31.274  -0.868  1.00  0.00     0.064 A 
HETATM   19  C   UNL     1     -47.557 -30.212  -0.027  1.00  0.00     0.083 A 
BRANCH  19  20
HETATM   20  O   UNL     1     -47.119 -29.032  -0.602  1.00  0.00    -0.360 OA
ATOM     21  HO  UNL     1     -46.395 -28.543  -0.229  1.00  0.00     0.217 HD
ENDBRANCH  19  20
ENDBRANCH  11  13
ENDBRANCH  10  11
ENDBRANCH   9  10
BRANCH   6  22
HETATM   22  C   UNL     1     -45.700 -29.160   5.517  1.00  0.00     0.180 C 
HETATM   23  O   UNL     1     -45.398 -29.852   6.515  1.00  0.00    -0.648 OA
HETATM   24  O   UNL     1     -46.769 -28.512   5.488  1.00  0.00    -0.648 OA
ENDBRANCH   6  22
TORSDOF 5
ENDMDL
