REMARK  5 active torsions:
REMARK  status: ('A' for Active; 'I' for Inactive)
REMARK    1  A    between atoms: C_2  and  O_8 
REMARK    2  A    between atoms: C_3  and  O_10 
REMARK    3  A    between atoms: C_4  and  O_12 
REMARK    4  A    between atoms: C_5  and  C_6 
REMARK    5  A    between atoms: C_6  and  O_15 
ROOT
HETATM    1  C   UNL     1      57.084  65.854  60.982  1.00  0.00     0.338 C 
HETATM    2  C   UNL     1      58.510  65.344  60.810  1.00  0.00     0.209 C 
HETATM    3  C   UNL     1      59.509  66.496  60.985  1.00  0.00     0.183 C 
HETATM    4  C   UNL     1      59.195  67.574  59.959  1.00  0.00     0.180 C 
HETATM    5  C   UNL     1      57.726  68.003  60.042  1.00  0.00     0.179 C 
HETATM    6  F   UNL     1      56.929  66.323  62.255  1.00  0.00    -0.217 F 
HETATM    7  O   UNL     1      56.822  66.881  60.042  1.00  0.00    -0.344 OA
ENDROOT
BRANCH   5   8
HETATM    8  C   UNL     1      57.355  68.944  58.908  1.00  0.00     0.198 C 
BRANCH   8   9
HETATM    9  O   UNL     1      56.064  69.526  59.148  1.00  0.00    -0.398 OA
ATOM     10  HO  UNL     1      55.832  70.114  58.439  1.00  0.00     0.209 HD
ENDBRANCH   8   9
ENDBRANCH   5   8
BRANCH   4  11
HETATM   11  O   UNL     1      60.053  68.705  60.150  1.00  0.00    -0.390 OA
ATOM     12  HO  UNL     1      59.857  69.378  59.509  1.00  0.00     0.210 HD
ENDBRANCH   4  11
BRANCH   3  13
HETATM   13  O   UNL     1      60.855  66.065  60.775  1.00  0.00    -0.390 OA
ATOM     14  HO  UNL     1      61.473  66.778  60.883  1.00  0.00     0.210 HD
ENDBRANCH   3  13
BRANCH   2  15
HETATM   15  O   UNL     1      58.760  64.282  61.736  1.00  0.00    -0.388 OA
ATOM     16  HO  UNL     1      59.649  63.964  61.629  1.00  0.00     0.210 HD
ENDBRANCH   2  15
TORSDOF 5
