REMARK  5 active torsions:
REMARK  status: ('A' for Active; 'I' for Inactive)
REMARK    1  A    between atoms: C_2  and  O_8 
REMARK    2  A    between atoms: C_3  and  O_9 
REMARK    3  A    between atoms: C_4  and  O_10 
REMARK    4  A    between atoms: C_5  and  C_6 
REMARK    5  A    between atoms: C_6  and  O_12 
ROOT
HETATM    1  C   UNL     1       0.969   0.315  -1.319  1.00  0.00     0.338 C 
HETATM    2  C   UNL     1       0.930  -1.188  -0.957  1.00  0.00     0.209 C 
HETATM    3  C   UNL     1      -0.178  -1.487   0.077  1.00  0.00     0.183 C 
HETATM    4  C   UNL     1      -0.463  -0.239   0.931  1.00  0.00     0.180 C 
HETATM    5  C   UNL     1      -0.885   0.934  -0.002  1.00  0.00     0.179 C 
HETATM    6  F   UNL     1       1.526   0.492  -2.574  1.00  0.00    -0.217 F 
HETATM    7  O   UNL     1      -0.334   0.867  -1.316  1.00  0.00    -0.344 OA
ENDROOT
BRANCH   5   8
HETATM    8  C   UNL     1      -0.589   2.301   0.638  1.00  0.00     0.198 C 
BRANCH   8   9
HETATM    9  O   UNL     1      -1.032   3.339  -0.193  1.00  0.00    -0.398 OA
HETATM   10  H   UNL     1      -2.020   3.378  -0.098  1.00  0.00     0.209 HD
ENDBRANCH   8   9
ENDBRANCH   5   8
BRANCH   4  11
HETATM   11  O   UNL     1      -1.495  -0.499   1.849  1.00  0.00    -0.390 OA
HETATM   12  H   UNL     1      -1.078  -0.927   2.642  1.00  0.00     0.210 HD
ENDBRANCH   4  11
BRANCH   3  13
HETATM   13  O   UNL     1       0.227  -2.557   0.894  1.00  0.00    -0.390 OA
HETATM   14  H   UNL     1      -0.599  -2.989   1.237  1.00  0.00     0.210 HD
ENDBRANCH   3  13
BRANCH   2  15
HETATM   15  O   UNL     1       0.701  -1.965  -2.106  1.00  0.00    -0.388 OA
HETATM   16  H   UNL     1       1.579  -2.091  -2.552  1.00  0.00     0.210 HD
ENDBRANCH   2  15
TORSDOF 5
