REMARK  3 active torsions:
REMARK  status: ('A' for Active; 'I' for Inactive)
REMARK    1  A    between atoms: C_2  and  C_3 
REMARK       I    between atoms: C_2  and  N_15 
REMARK    2  A    between atoms: C_8  and  C_25 
REMARK    3  A    between atoms: N_18  and  C_20 
ROOT
HETATM    1  C   UNL     1      -0.755  -1.167   3.607  1.00  0.00     0.120 A 
HETATM    2  C   UNL     1      -0.048  -3.026   4.877  1.00  0.00     0.180 A 
HETATM    3  C   UNL     1       0.083  -1.547   2.551  1.00  0.00     0.073 A 
HETATM    4  N   UNL     1      -0.805  -1.909   4.742  1.00  0.00    -0.360 N 
ATOM      5  HN  UNL     1      -1.420  -1.623   5.504  1.00  0.00     0.166 HD
HETATM    6  N   UNL     1       0.782  -3.412   3.875  1.00  0.00    -0.350 N 
ATOM      7  HN  UNL     1       1.345  -4.254   3.991  1.00  0.00     0.166 HD
HETATM    8  C   UNL     1       0.880  -2.701   2.718  1.00  0.00     0.071 A 
ENDROOT
BRANCH   3   9
HETATM    9  N   UNL     1       0.060  -0.808   1.316  1.00  0.00    -0.378 N 
HETATM   10  C   UNL     1      -0.363  -1.451   0.067  1.00  0.00     0.124 C 
HETATM   11  C   UNL     1      -1.602  -0.739  -0.485  1.00  0.00     0.034 C 
HETATM   12  C   UNL     1      -1.355   0.777  -0.599  1.00  0.00     0.081 C 
HETATM   13  C   UNL     1      -0.927   1.367   0.759  1.00  0.00     0.034 C 
HETATM   14  C   UNL     1       0.306   0.637   1.300  1.00  0.00     0.124 C 
BRANCH  12  15
HETATM   15  C   UNL     1      -2.588   1.470  -1.117  1.00  0.00     0.224 C 
HETATM   16  N   UNL     1      -2.594   2.051  -2.421  1.00  0.00    -0.346 N 
HETATM   17  C   UNL     1      -3.546   2.781  -3.276  1.00  0.00     0.164 A 
HETATM   18  C   UNL     1      -1.668   2.201  -3.559  1.00  0.00     0.164 A 
HETATM   19  C   UNL     1      -2.621   2.943  -4.437  1.00  0.00     0.206 A 
HETATM   20  F   UNL     1      -2.244   4.261  -4.635  1.00  0.00    -0.246 F 
HETATM   21  O   UNL     1      -3.631   1.522  -0.412  1.00  0.00    -0.273 OA
ENDBRANCH  12  15
ENDBRANCH   3   9
BRANCH   8  22
HETATM   22  C   UNL     1       1.838  -3.158   1.688  1.00  0.00    -0.007 A 
HETATM   23  C   UNL     1       2.732  -2.257   1.081  1.00  0.00     0.017 A 
HETATM   24  C   UNL     1       3.636  -2.705   0.112  1.00  0.00     0.043 A 
HETATM   25  C   UNL     1       3.666  -4.056  -0.247  1.00  0.00     0.116 A 
HETATM   26  F   UNL     1       4.544  -4.488  -1.185  1.00  0.00    -0.206 F 
HETATM   27  C   UNL     1       2.797  -4.961   0.368  1.00  0.00     0.043 A 
HETATM   28  C   UNL     1       1.891  -4.517   1.336  1.00  0.00     0.017 A 
ENDBRANCH   8  22
TORSDOF 3
