REMARK  5 active torsions:
REMARK  status: ('A' for Active; 'I' for Inactive)
REMARK    1  A    between atoms: N_1  and  C_24 
REMARK    2  A    between atoms: C_4  and  S_27 
REMARK    3  A    between atoms: C_10  and  O_18 
REMARK    4  A    between atoms: C_17  and  O_18 
REMARK    5  A    between atoms: S_27  and  C_30 
ROOT
HETATM    1  C   UNL     1      42.823   0.481  11.000  1.00  0.00     0.145 A 
HETATM    2  C   UNL     1      44.216   0.654  11.014  1.00  0.00     0.070 A 
HETATM    3  C   UNL     1      44.482  -1.746  10.860  1.00  0.00     0.099 A 
HETATM    4  C   UNL     1      43.097  -1.908  10.839  1.00  0.00     0.072 A 
HETATM    5  C   UNL     1      45.042  -0.464  10.941  1.00  0.00     0.081 A 
HETATM    6  C   UNL     1      46.463  -0.294  10.958  1.00  0.00     0.102 C 
HETATM    7  N   UNL     1      47.596  -0.199  10.967  1.00  0.00    -0.191 NA
HETATM    8  F   UNL     1      42.023   1.560  11.080  1.00  0.00    -0.204 F 
HETATM    9  C   UNL     1      42.263  -0.799  10.924  1.00  0.00     0.088 A 
ENDROOT
BRANCH   3  10
HETATM   10  O   UNL     1      45.242  -2.874  10.754  1.00  0.00    -0.309 OA
BRANCH  10  11
HETATM   11  C   UNL     1      45.931  -3.393  11.804  1.00  0.00     0.082 A 
HETATM   12  C   UNL     1      45.747  -2.954  13.117  1.00  0.00     0.038 A 
HETATM   13  C   UNL     1      46.494  -3.531  14.145  1.00  0.00     0.003 A 
HETATM   14  C   UNL     1      47.410  -4.541  13.867  1.00  0.00     0.001 A 
HETATM   15  C   UNL     1      47.590  -4.979  12.558  1.00  0.00     0.009 A 
HETATM   16  C   UNL     1      46.852  -4.407  11.528  1.00  0.00    -0.028 A 
HETATM   17  C   UNL     1      47.064  -4.904  10.090  1.00  0.00     0.051 C 
ENDBRANCH  10  11
ENDBRANCH   3  10
BRANCH   9  18
HETATM   18  N   UNL     1      40.856  -0.941  10.890  1.00  0.00    -0.227 N 
HETATM   19  C   UNL     1      40.235  -1.422   9.732  1.00  0.00     0.259 A 
HETATM   20  C   UNL     1      38.845  -1.540   9.665  1.00  0.00     0.117 A 
HETATM   21  O   UNL     1      40.916  -1.750   8.763  1.00  0.00    -0.267 OA
HETATM   22  C   UNL     1      38.076  -1.167  10.763  1.00  0.00     0.142 A 
HETATM   23  N   UNL     1      38.681  -0.671  11.915  1.00  0.00    -0.298 N 
HETATM   24  C   UNL     1      40.075  -0.553  11.980  1.00  0.00     0.335 A 
ATOM     25  HN  UNL     1      38.108  -0.393  12.712  1.00  0.00     0.171 HD
HETATM   26  O   UNL     1      40.613  -0.116  12.998  1.00  0.00    -0.246 OA
BRANCH  22  27
HETATM   27  S   UNL     1      36.319  -1.270  10.735  1.00  0.00     0.222 S 
HETATM   28  O   UNL     1      35.936  -1.773   9.385  1.00  0.00    -0.216 OA
HETATM   29  O   UNL     1      35.928  -2.121  11.899  1.00  0.00    -0.216 OA
BRANCH  27  30
HETATM   30  C   UNL     1      35.827   0.355  10.971  1.00  0.00     0.065 A 
HETATM   31  C   UNL     1      35.470   0.789  12.241  1.00  0.00     0.024 A 
HETATM   32  C   UNL     1      35.118   2.119  12.419  1.00  0.00     0.002 A 
HETATM   33  C   UNL     1      35.129   3.010  11.347  1.00  0.00     0.000 A 
HETATM   34  C   UNL     1      35.501   2.561  10.086  1.00  0.00     0.002 A 
HETATM   35  C   UNL     1      35.860   1.232   9.893  1.00  0.00     0.024 A 
ENDBRANCH  27  30
ENDBRANCH  22  27
ENDBRANCH   9  18
TORSDOF 5
