REMARK  4 active torsions:
REMARK  status: ('A' for Active; 'I' for Inactive)
REMARK    1  A    between atoms: C_9  and  N_12 
REMARK    2  A    between atoms: C_15  and  C_16 
REMARK    3  A    between atoms: C_19  and  C_22 
REMARK    4  A    between atoms: C_23  and  C_24 
ROOT
HETATM    1  C   UNL     1      -6.035  -7.154  32.031  1.00  0.00    -0.023 A 
HETATM    2  C   UNL     1      -6.186  -8.144  29.739  1.00  0.00     0.020 C 
HETATM    3  C   UNL     1      -6.880  -7.416  33.122  1.00  0.00     0.037 A 
HETATM    4  C   UNL     1      -6.319  -7.622  34.394  1.00  0.00     0.031 A 
HETATM    5  C   UNL     1      -6.557  -6.929  30.609  1.00  0.00    -0.017 C 
HETATM    6  C   UNL     1      -8.086  -6.773  30.606  1.00  0.00     0.033 C 
HETATM    7  C   UNL     1      -8.747  -7.732  31.561  1.00  0.00     0.124 C 
HETATM    8  C   UNL     1      -5.937  -5.659  30.000  1.00  0.00     0.020 C 
HETATM    9  N   UNL     1      -8.242  -7.517  32.918  1.00  0.00    -0.376 N 
HETATM   10  C   UNL     1      -4.652  -7.093  32.252  1.00  0.00     0.022 A 
HETATM   11  C   UNL     1      -4.951  -7.563  34.577  1.00  0.00     0.014 A 
HETATM   12  C   UNL     1      -4.092  -7.260  33.522  1.00  0.00    -0.025 A 
ENDROOT
BRANCH  12  13
HETATM   13  C   UNL     1      -2.610  -7.226  33.698  1.00  0.00    -0.026 A 
HETATM   14  C   UNL     1      -1.785  -7.417  32.596  1.00  0.00     0.013 A 
HETATM   15  C   UNL     1      -0.409  -7.458  32.717  1.00  0.00     0.012 A 
HETATM   16  C   UNL     1       0.221  -7.325  33.948  1.00  0.00    -0.036 A 
HETATM   17  C   UNL     1      -0.601  -7.164  35.064  1.00  0.00     0.012 A 
HETATM   18  C   UNL     1      -1.985  -7.123  34.941  1.00  0.00     0.013 A 
BRANCH  16  19
HETATM   19  C   UNL     1       1.689  -7.370  34.006  1.00  0.00     0.018 C 
HETATM   20  C   UNL     1       2.441  -7.534  35.055  1.00  0.00     0.085 C 
BRANCH  20  21
HETATM   21  C   UNL     1       3.939  -7.666  35.010  1.00  0.00     0.198 C 
HETATM   22  O   UNL     1       4.510  -8.189  33.987  1.00  0.00    -0.645 OA
HETATM   23  O   UNL     1       4.539  -7.219  35.953  1.00  0.00    -0.645 OA
ENDBRANCH  20  21
ENDBRANCH  16  19
ENDBRANCH  12  13
BRANCH   9  24
HETATM   24  C   UNL     1      -9.193  -7.524  34.066  1.00  0.00     0.076 C 
HETATM   25  C   UNL     1      -9.404  -8.944  34.543  1.00  0.00     0.032 C 
HETATM   26  C   UNL     1     -10.498  -6.821  33.759  1.00  0.00     0.032 C 
ENDBRANCH   9  24
TORSDOF 4
