MODEL 1
REMARK VINA RESULT:    -6.235      0.000      0.000
REMARK INTER + INTRA:          -7.373
REMARK INTER:                  -7.329
REMARK INTRA:                  -0.044
REMARK UNBOUND:                -0.044
REMARK  3 active torsions:
REMARK  status: ('A' for Active; 'I' for Inactive)
REMARK    1  A    between atoms: C_1  and  C_2 
REMARK    2  A    between atoms: C_2  and  C_3 
REMARK    3  A    between atoms: C_3  and  C_4 
ROOT
HETATM    1  C   UNL     1     -20.647  17.606  27.073  1.00  0.00     0.019 C 
HETATM    2  C   UNL     1     -20.954  17.686  25.789  1.00  0.00     0.026 C 
ENDROOT
BRANCH   1   3
HETATM    3  C   UNL     1     -21.604  16.894  28.033  1.00  0.00     0.158 C 
BRANCH   3   4
HETATM    4  C   UNL     1     -20.846  15.895  28.898  1.00  0.00     0.177 C 
HETATM    5  O   UNL     1     -20.876  15.976  30.150  1.00  0.00    -0.648 OA
HETATM    6  O   UNL     1     -20.189  14.997  28.322  1.00  0.00    -0.648 OA
ENDBRANCH   3   4
ENDBRANCH   1   3
BRANCH   1   7
HETATM    7  C   UNL     1     -19.382  18.245  27.601  1.00  0.00     0.204 C 
HETATM    8  O   UNL     1     -19.374  18.739  28.768  1.00  0.00    -0.644 OA
HETATM    9  O   UNL     1     -18.347  18.295  26.865  1.00  0.00    -0.644 OA
ENDBRANCH   1   7
TORSDOF 3
ENDMDL
MODEL 2
REMARK VINA RESULT:    -5.998      1.438      2.297
REMARK INTER + INTRA:          -7.095
REMARK INTER:                  -7.067
REMARK INTRA:                  -0.028
REMARK UNBOUND:                -0.044
REMARK  3 active torsions:
REMARK  status: ('A' for Active; 'I' for Inactive)
REMARK    1  A    between atoms: C_1  and  C_2 
REMARK    2  A    between atoms: C_2  and  C_3 
REMARK    3  A    between atoms: C_3  and  C_4 
ROOT
HETATM    1  C   UNL     1     -19.985  18.189  25.829  1.00  0.00     0.019 C 
HETATM    2  C   UNL     1     -20.657  17.659  24.821  1.00  0.00     0.026 C 
ENDROOT
BRANCH   1   3
HETATM    3  C   UNL     1     -20.656  18.306  27.201  1.00  0.00     0.158 C 
BRANCH   3   4
HETATM    4  C   UNL     1     -20.090  17.267  28.162  1.00  0.00     0.177 C 
HETATM    5  O   UNL     1     -20.269  16.041  27.961  1.00  0.00    -0.648 OA
HETATM    6  O   UNL     1     -19.449  17.674  29.159  1.00  0.00    -0.648 OA
ENDBRANCH   3   4
ENDBRANCH   1   3
BRANCH   1   7
HETATM    7  C   UNL     1     -18.580  18.711  25.627  1.00  0.00     0.204 C 
HETATM    8  O   UNL     1     -18.340  19.490  24.657  1.00  0.00    -0.644 OA
HETATM    9  O   UNL     1     -17.654  18.351  26.419  1.00  0.00    -0.644 OA
ENDBRANCH   1   7
TORSDOF 3
ENDMDL
MODEL 3
REMARK VINA RESULT:    -5.749      1.526      3.327
REMARK INTER + INTRA:          -6.802
REMARK INTER:                  -6.627
REMARK INTRA:                  -0.175
REMARK UNBOUND:                -0.044
REMARK  3 active torsions:
REMARK  status: ('A' for Active; 'I' for Inactive)
REMARK    1  A    between atoms: C_1  and  C_2 
REMARK    2  A    between atoms: C_2  and  C_3 
REMARK    3  A    between atoms: C_3  and  C_4 
ROOT
HETATM    1  C   UNL     1     -20.981  16.773  27.733  1.00  0.00     0.019 C 
HETATM    2  C   UNL     1     -21.706  15.696  27.481  1.00  0.00     0.026 C 
ENDROOT
BRANCH   1   3
HETATM    3  C   UNL     1     -21.137  18.011  26.845  1.00  0.00     0.158 C 
BRANCH   3   4
HETATM    4  C   UNL     1     -20.244  17.901  25.615  1.00  0.00     0.177 C 
HETATM    5  O   UNL     1     -20.706  17.498  24.519  1.00  0.00    -0.648 OA
HETATM    6  O   UNL     1     -19.037  18.217  25.733  1.00  0.00    -0.648 OA
ENDBRANCH   3   4
ENDBRANCH   1   3
BRANCH   1   7
HETATM    7  C   UNL     1     -19.975  16.776  28.863  1.00  0.00     0.204 C 
HETATM    8  O   UNL     1     -19.764  15.707  29.510  1.00  0.00    -0.644 OA
HETATM    9  O   UNL     1     -19.367  17.850  29.163  1.00  0.00    -0.644 OA
ENDBRANCH   1   7
TORSDOF 3
ENDMDL
MODEL 4
REMARK VINA RESULT:    -5.572      0.863      3.252
REMARK INTER + INTRA:          -6.594
REMARK INTER:                  -6.548
REMARK INTRA:                  -0.046
REMARK UNBOUND:                -0.044
REMARK  3 active torsions:
REMARK  status: ('A' for Active; 'I' for Inactive)
REMARK    1  A    between atoms: C_1  and  C_2 
REMARK    2  A    between atoms: C_2  and  C_3 
REMARK    3  A    between atoms: C_3  and  C_4 
ROOT
HETATM    1  C   UNL     1     -21.214  16.355  27.984  1.00  0.00     0.019 C 
HETATM    2  C   UNL     1     -21.833  15.559  27.129  1.00  0.00     0.026 C 
ENDROOT
BRANCH   1   3
HETATM    3  C   UNL     1     -20.995  17.826  27.620  1.00  0.00     0.158 C 
BRANCH   3   4
HETATM    4  C   UNL     1     -19.529  18.206  27.791  1.00  0.00     0.177 C 
HETATM    5  O   UNL     1     -19.109  18.673  28.878  1.00  0.00    -0.648 OA
HETATM    6  O   UNL     1     -18.761  18.044  26.815  1.00  0.00    -0.648 OA
ENDBRANCH   3   4
ENDBRANCH   1   3
BRANCH   1   7
HETATM    7  C   UNL     1     -20.688  15.814  29.295  1.00  0.00     0.204 C 
HETATM    8  O   UNL     1     -19.539  15.281  29.332  1.00  0.00    -0.644 OA
HETATM    9  O   UNL     1     -21.409  15.883  30.339  1.00  0.00    -0.644 OA
ENDBRANCH   1   7
TORSDOF 3
ENDMDL
MODEL 5
REMARK VINA RESULT:    -5.347      1.536      2.294
REMARK INTER + INTRA:          -6.329
REMARK INTER:                  -6.295
REMARK INTRA:                  -0.034
REMARK UNBOUND:                -0.044
REMARK  3 active torsions:
REMARK  status: ('A' for Active; 'I' for Inactive)
REMARK    1  A    between atoms: C_1  and  C_2 
REMARK    2  A    between atoms: C_2  and  C_3 
REMARK    3  A    between atoms: C_3  and  C_4 
ROOT
HETATM    1  C   UNL     1     -19.853  18.016  27.185  1.00  0.00     0.019 C 
HETATM    2  C   UNL     1     -19.527  18.108  28.463  1.00  0.00     0.026 C 
ENDROOT
BRANCH   1   3
HETATM    3  C   UNL     1     -21.232  17.473  26.797  1.00  0.00     0.158 C 
BRANCH   3   4
HETATM    4  C   UNL     1     -21.596  16.274  27.664  1.00  0.00     0.177 C 
HETATM    5  O   UNL     1     -21.077  15.150  27.456  1.00  0.00    -0.648 OA
HETATM    6  O   UNL     1     -22.430  16.443  28.584  1.00  0.00    -0.648 OA
ENDBRANCH   3   4
ENDBRANCH   1   3
BRANCH   1   7
HETATM    7  C   UNL     1     -18.863  18.405  26.109  1.00  0.00     0.204 C 
HETATM    8  O   UNL     1     -19.290  18.741  24.964  1.00  0.00    -0.644 OA
HETATM    9  O   UNL     1     -17.618  18.374  26.358  1.00  0.00    -0.644 OA
ENDBRANCH   1   7
TORSDOF 3
ENDMDL
MODEL 6
REMARK VINA RESULT:    -5.133      1.330      1.923
REMARK INTER + INTRA:          -6.078
REMARK INTER:                  -6.013
REMARK INTRA:                  -0.065
REMARK UNBOUND:                -0.044
REMARK  3 active torsions:
REMARK  status: ('A' for Active; 'I' for Inactive)
REMARK    1  A    between atoms: C_1  and  C_2 
REMARK    2  A    between atoms: C_2  and  C_3 
REMARK    3  A    between atoms: C_3  and  C_4 
ROOT
HETATM    1  C   UNL     1     -20.489  17.656  27.465  1.00  0.00     0.019 C 
HETATM    2  C   UNL     1     -19.817  18.373  28.350  1.00  0.00     0.026 C 
ENDROOT
BRANCH   1   3
HETATM    3  C   UNL     1     -21.479  16.594  27.952  1.00  0.00     0.158 C 
BRANCH   3   4
HETATM    4  C   UNL     1     -20.854  15.750  29.057  1.00  0.00     0.177 C 
HETATM    5  O   UNL     1     -21.309  15.784  30.226  1.00  0.00    -0.648 OA
HETATM    6  O   UNL     1     -19.872  15.030  28.764  1.00  0.00    -0.648 OA
ENDBRANCH   3   4
ENDBRANCH   1   3
BRANCH   1   7
HETATM    7  C   UNL     1     -20.258  17.852  25.983  1.00  0.00     0.204 C 
HETATM    8  O   UNL     1     -21.016  17.267  25.153  1.00  0.00    -0.644 OA
HETATM    9  O   UNL     1     -19.299  18.584  25.586  1.00  0.00    -0.644 OA
ENDBRANCH   1   7
TORSDOF 3
ENDMDL
MODEL 7
REMARK VINA RESULT:    -5.120      1.571      3.689
REMARK INTER + INTRA:          -6.063
REMARK INTER:                  -5.969
REMARK INTRA:                  -0.094
REMARK UNBOUND:                -0.044
REMARK  3 active torsions:
REMARK  status: ('A' for Active; 'I' for Inactive)
REMARK    1  A    between atoms: C_1  and  C_2 
REMARK    2  A    between atoms: C_2  and  C_3 
REMARK    3  A    between atoms: C_3  and  C_4 
ROOT
HETATM    1  C   UNL     1     -20.466  17.202  27.938  1.00  0.00     0.019 C 
HETATM    2  C   UNL     1     -19.656  17.889  28.725  1.00  0.00     0.026 C 
ENDROOT
BRANCH   1   3
HETATM    3  C   UNL     1     -21.199  17.921  26.801  1.00  0.00     0.158 C 
BRANCH   3   4
HETATM    4  C   UNL     1     -20.348  17.924  25.537  1.00  0.00     0.177 C 
HETATM    5  O   UNL     1     -19.298  18.608  25.470  1.00  0.00    -0.648 OA
HETATM    6  O   UNL     1     -20.733  17.230  24.566  1.00  0.00    -0.648 OA
ENDBRANCH   3   4
ENDBRANCH   1   3
BRANCH   1   7
HETATM    7  C   UNL     1     -20.701  15.727  28.176  1.00  0.00     0.204 C 
HETATM    8  O   UNL     1     -20.171  15.166  29.181  1.00  0.00    -0.644 OA
HETATM    9  O   UNL     1     -21.412  15.063  27.358  1.00  0.00    -0.644 OA
ENDBRANCH   1   7
TORSDOF 3
ENDMDL
MODEL 8
REMARK VINA RESULT:    -4.569      8.411     10.075
REMARK INTER + INTRA:          -5.414
REMARK INTER:                  -5.243
REMARK INTRA:                  -0.171
REMARK UNBOUND:                -0.044
REMARK  3 active torsions:
REMARK  status: ('A' for Active; 'I' for Inactive)
REMARK    1  A    between atoms: C_1  and  C_2 
REMARK    2  A    between atoms: C_2  and  C_3 
REMARK    3  A    between atoms: C_3  and  C_4 
ROOT
HETATM    1  C   UNL     1     -24.372   9.262  32.487  1.00  0.00     0.019 C 
HETATM    2  C   UNL     1     -25.487   9.109  33.179  1.00  0.00     0.026 C 
ENDROOT
BRANCH   1   3
HETATM    3  C   UNL     1     -23.593   8.024  32.032  1.00  0.00     0.158 C 
BRANCH   3   4
HETATM    4  C   UNL     1     -22.613   7.583  33.113  1.00  0.00     0.177 C 
HETATM    5  O   UNL     1     -22.937   6.714  33.958  1.00  0.00    -0.648 OA
HETATM    6  O   UNL     1     -21.480   8.118  33.135  1.00  0.00    -0.648 OA
ENDBRANCH   3   4
ENDBRANCH   1   3
BRANCH   1   7
HETATM    7  C   UNL     1     -23.842  10.644  32.177  1.00  0.00     0.204 C 
HETATM    8  O   UNL     1     -24.362  11.651  32.744  1.00  0.00    -0.644 OA
HETATM    9  O   UNL     1     -22.895  10.783  31.341  1.00  0.00    -0.644 OA
ENDBRANCH   1   7
TORSDOF 3
ENDMDL
MODEL 9
REMARK VINA RESULT:    -4.332      8.461     10.305
REMARK INTER + INTRA:          -5.136
REMARK INTER:                  -5.013
REMARK INTRA:                  -0.123
REMARK UNBOUND:                -0.044
REMARK  3 active torsions:
REMARK  status: ('A' for Active; 'I' for Inactive)
REMARK    1  A    between atoms: C_1  and  C_2 
REMARK    2  A    between atoms: C_2  and  C_3 
REMARK    3  A    between atoms: C_3  and  C_4 
ROOT
HETATM    1  C   UNL     1     -24.216   9.263  32.586  1.00  0.00     0.019 C 
HETATM    2  C   UNL     1     -25.409   9.050  33.116  1.00  0.00     0.026 C 
ENDROOT
BRANCH   1   3
HETATM    3  C   UNL     1     -23.247   8.089  32.420  1.00  0.00     0.158 C 
BRANCH   3   4
HETATM    4  C   UNL     1     -23.912   6.952  31.654  1.00  0.00     0.177 C 
HETATM    5  O   UNL     1     -24.251   7.097  30.454  1.00  0.00    -0.648 OA
HETATM    6  O   UNL     1     -24.115   5.874  32.259  1.00  0.00    -0.648 OA
ENDBRANCH   3   4
ENDBRANCH   1   3
BRANCH   1   7
HETATM    7  C   UNL     1     -23.793  10.657  32.182  1.00  0.00     0.204 C 
HETATM    8  O   UNL     1     -22.895  10.804  31.300  1.00  0.00    -0.644 OA
HETATM    9  O   UNL     1     -24.327  11.665  32.742  1.00  0.00    -0.644 OA
ENDBRANCH   1   7
TORSDOF 3
ENDMDL
MODEL 10
REMARK VINA RESULT:    -4.115      8.657     10.431
REMARK INTER + INTRA:          -4.882
REMARK INTER:                  -4.694
REMARK INTRA:                  -0.188
REMARK UNBOUND:                -0.044
REMARK  3 active torsions:
REMARK  status: ('A' for Active; 'I' for Inactive)
REMARK    1  A    between atoms: C_1  and  C_2 
REMARK    2  A    between atoms: C_2  and  C_3 
REMARK    3  A    between atoms: C_3  and  C_4 
ROOT
HETATM    1  C   UNL     1     -23.405   8.901  32.315  1.00  0.00     0.019 C 
HETATM    2  C   UNL     1     -22.337   8.292  32.801  1.00  0.00     0.026 C 
ENDROOT
BRANCH   1   3
HETATM    3  C   UNL     1     -24.645   8.076  31.958  1.00  0.00     0.158 C 
BRANCH   3   4
HETATM    4  C   UNL     1     -25.327   7.563  33.220  1.00  0.00     0.177 C 
HETATM    5  O   UNL     1     -25.302   6.343  33.513  1.00  0.00    -0.648 OA
HETATM    6  O   UNL     1     -25.916   8.394  33.951  1.00  0.00    -0.648 OA
ENDBRANCH   3   4
ENDBRANCH   1   3
BRANCH   1   7
HETATM    7  C   UNL     1     -23.396  10.395  32.076  1.00  0.00     0.204 C 
HETATM    8  O   UNL     1     -24.299  11.114  32.598  1.00  0.00    -0.644 OA
HETATM    9  O   UNL     1     -22.495  10.910  31.343  1.00  0.00    -0.644 OA
ENDBRANCH   1   7
TORSDOF 3
ENDMDL
MODEL 11
REMARK VINA RESULT:    -3.823      9.579     11.124
REMARK INTER + INTRA:          -4.538
REMARK INTER:                  -4.397
REMARK INTRA:                  -0.141
REMARK UNBOUND:                -0.044
REMARK  3 active torsions:
REMARK  status: ('A' for Active; 'I' for Inactive)
REMARK    1  A    between atoms: C_1  and  C_2 
REMARK    2  A    between atoms: C_2  and  C_3 
REMARK    3  A    between atoms: C_3  and  C_4 
ROOT
HETATM    1  C   UNL     1     -23.410   7.192  32.997  1.00  0.00     0.019 C 
HETATM    2  C   UNL     1     -24.007   6.513  33.962  1.00  0.00     0.026 C 
ENDROOT
BRANCH   1   3
HETATM    3  C   UNL     1     -24.259   7.885  31.928  1.00  0.00     0.158 C 
BRANCH   3   4
HETATM    4  C   UNL     1     -24.501   9.343  32.302  1.00  0.00     0.177 C 
HETATM    5  O   UNL     1     -25.354   9.650  33.171  1.00  0.00    -0.648 OA
HETATM    6  O   UNL     1     -23.829  10.222  31.714  1.00  0.00    -0.648 OA
ENDBRANCH   3   4
ENDBRANCH   1   3
BRANCH   1   7
HETATM    7  C   UNL     1     -21.900   7.255  32.922  1.00  0.00     0.204 C 
HETATM    8  O   UNL     1     -21.309   8.345  33.185  1.00  0.00    -0.644 OA
HETATM    9  O   UNL     1     -21.243   6.222  32.581  1.00  0.00    -0.644 OA
ENDBRANCH   1   7
TORSDOF 3
ENDMDL
MODEL 12
REMARK VINA RESULT:    -3.633     10.485     11.458
REMARK INTER + INTRA:          -4.314
REMARK INTER:                  -4.134
REMARK INTRA:                  -0.181
REMARK UNBOUND:                -0.044
REMARK  3 active torsions:
REMARK  status: ('A' for Active; 'I' for Inactive)
REMARK    1  A    between atoms: C_1  and  C_2 
REMARK    2  A    between atoms: C_2  and  C_3 
REMARK    3  A    between atoms: C_3  and  C_4 
ROOT
HETATM    1  C   UNL     1     -24.884   7.531  32.421  1.00  0.00     0.019 C 
HETATM    2  C   UNL     1     -25.817   6.596  32.383  1.00  0.00     0.026 C 
ENDROOT
BRANCH   1   3
HETATM    3  C   UNL     1     -23.463   7.196  31.958  1.00  0.00     0.158 C 
BRANCH   3   4
HETATM    4  C   UNL     1     -22.490   7.270  33.128  1.00  0.00     0.177 C 
HETATM    5  O   UNL     1     -22.586   6.477  34.096  1.00  0.00    -0.648 OA
HETATM    6  O   UNL     1     -21.597   8.149  33.097  1.00  0.00    -0.648 OA
ENDBRANCH   3   4
ENDBRANCH   1   3
BRANCH   1   7
HETATM    7  C   UNL     1     -25.200   8.912  32.952  1.00  0.00     0.204 C 
HETATM    8  O   UNL     1     -26.073   9.044  33.861  1.00  0.00    -0.644 OA
HETATM    9  O   UNL     1     -24.602   9.924  32.470  1.00  0.00    -0.644 OA
ENDBRANCH   1   7
TORSDOF 3
ENDMDL
MODEL 13
REMARK VINA RESULT:    -3.575      8.281     10.486
REMARK INTER + INTRA:          -4.246
REMARK INTER:                  -4.322
REMARK INTRA:                   0.076
REMARK UNBOUND:                -0.044
REMARK  3 active torsions:
REMARK  status: ('A' for Active; 'I' for Inactive)
REMARK    1  A    between atoms: C_1  and  C_2 
REMARK    2  A    between atoms: C_2  and  C_3 
REMARK    3  A    between atoms: C_3  and  C_4 
ROOT
HETATM    1  C   UNL     1     -22.819   8.147  32.679  1.00  0.00     0.019 C 
HETATM    2  C   UNL     1     -21.939   7.170  32.548  1.00  0.00     0.026 C 
ENDROOT
BRANCH   1   3
HETATM    3  C   UNL     1     -22.325   9.582  32.887  1.00  0.00     0.158 C 
BRANCH   3   4
HETATM    4  C   UNL     1     -23.199  10.564  32.115  1.00  0.00     0.177 C 
HETATM    5  O   UNL     1     -24.327  10.900  32.552  1.00  0.00    -0.648 OA
HETATM    6  O   UNL     1     -22.761  11.018  31.033  1.00  0.00    -0.648 OA
ENDBRANCH   3   4
ENDBRANCH   1   3
BRANCH   1   7
HETATM    7  C   UNL     1     -24.303   7.853  32.665  1.00  0.00     0.204 C 
HETATM    8  O   UNL     1     -24.956   7.897  33.750  1.00  0.00    -0.644 OA
HETATM    9  O   UNL     1     -24.874   7.549  31.571  1.00  0.00    -0.644 OA
ENDBRANCH   1   7
TORSDOF 3
ENDMDL
MODEL 14
REMARK VINA RESULT:    -3.562      8.546     10.760
REMARK INTER + INTRA:          -4.231
REMARK INTER:                  -4.440
REMARK INTRA:                   0.209
REMARK UNBOUND:                -0.044
REMARK  3 active torsions:
REMARK  status: ('A' for Active; 'I' for Inactive)
REMARK    1  A    between atoms: C_1  and  C_2 
REMARK    2  A    between atoms: C_2  and  C_3 
REMARK    3  A    between atoms: C_3  and  C_4 
ROOT
HETATM    1  C   UNL     1     -24.122   7.995  32.454  1.00  0.00     0.019 C 
HETATM    2  C   UNL     1     -25.115   8.046  33.325  1.00  0.00     0.026 C 
ENDROOT
BRANCH   1   3
HETATM    3  C   UNL     1     -22.977   9.007  32.557  1.00  0.00     0.158 C 
BRANCH   3   4
HETATM    4  C   UNL     1     -23.425  10.372  32.048  1.00  0.00     0.177 C 
HETATM    5  O   UNL     1     -22.760  10.982  31.175  1.00  0.00    -0.648 OA
HETATM    6  O   UNL     1     -24.470  10.867  32.530  1.00  0.00    -0.648 OA
ENDBRANCH   3   4
ENDBRANCH   1   3
BRANCH   1   7
HETATM    7  C   UNL     1     -24.130   6.973  31.338  1.00  0.00     0.204 C 
HETATM    8  O   UNL     1     -23.858   5.764  31.601  1.00  0.00    -0.644 OA
HETATM    9  O   UNL     1     -24.391   7.340  30.150  1.00  0.00    -0.644 OA
ENDBRANCH   1   7
TORSDOF 3
ENDMDL
MODEL 15
REMARK VINA RESULT:    -3.524     10.785     11.896
REMARK INTER + INTRA:          -4.186
REMARK INTER:                  -4.086
REMARK INTRA:                  -0.100
REMARK UNBOUND:                -0.044
REMARK  3 active torsions:
REMARK  status: ('A' for Active; 'I' for Inactive)
REMARK    1  A    between atoms: C_1  and  C_2 
REMARK    2  A    between atoms: C_2  and  C_3 
REMARK    3  A    between atoms: C_3  and  C_4 
ROOT
HETATM    1  C   UNL     1     -22.120   7.097  33.205  1.00  0.00     0.019 C 
HETATM    2  C   UNL     1     -21.386   8.193  33.116  1.00  0.00     0.026 C 
ENDROOT
BRANCH   1   3
HETATM    3  C   UNL     1     -23.612   7.214  33.533  1.00  0.00     0.158 C 
BRANCH   3   4
HETATM    4  C   UNL     1     -24.338   7.995  32.444  1.00  0.00     0.177 C 
HETATM    5  O   UNL     1     -25.145   8.910  32.739  1.00  0.00    -0.648 OA
HETATM    6  O   UNL     1     -24.109   7.692  31.250  1.00  0.00    -0.648 OA
ENDBRANCH   3   4
ENDBRANCH   1   3
BRANCH   1   7
HETATM    7  C   UNL     1     -21.491   5.734  33.022  1.00  0.00     0.204 C 
HETATM    8  O   UNL     1     -20.774   5.250  33.948  1.00  0.00    -0.644 OA
HETATM    9  O   UNL     1     -21.674   5.095  31.938  1.00  0.00    -0.644 OA
ENDBRANCH   1   7
TORSDOF 3
ENDMDL
MODEL 16
REMARK VINA RESULT:    -3.495     10.596     11.917
REMARK INTER + INTRA:          -4.152
REMARK INTER:                  -3.976
REMARK INTRA:                  -0.176
REMARK UNBOUND:                -0.044
REMARK  3 active torsions:
REMARK  status: ('A' for Active; 'I' for Inactive)
REMARK    1  A    between atoms: C_1  and  C_2 
REMARK    2  A    between atoms: C_2  and  C_3 
REMARK    3  A    between atoms: C_3  and  C_4 
ROOT
HETATM    1  C   UNL     1     -22.681   7.586  33.016  1.00  0.00     0.019 C 
HETATM    2  C   UNL     1     -21.536   8.246  32.983  1.00  0.00     0.026 C 
ENDROOT
BRANCH   1   3
HETATM    3  C   UNL     1     -22.817   6.358  33.922  1.00  0.00     0.158 C 
BRANCH   3   4
HETATM    4  C   UNL     1     -21.849   5.265  33.487  1.00  0.00     0.177 C 
HETATM    5  O   UNL     1     -20.909   4.904  34.236  1.00  0.00    -0.648 OA
HETATM    6  O   UNL     1     -22.016   4.744  32.359  1.00  0.00    -0.648 OA
ENDBRANCH   3   4
ENDBRANCH   1   3
BRANCH   1   7
HETATM    7  C   UNL     1     -23.839   8.010  32.139  1.00  0.00     0.204 C 
HETATM    8  O   UNL     1     -24.592   8.957  32.518  1.00  0.00    -0.644 OA
HETATM    9  O   UNL     1     -24.054   7.404  31.043  1.00  0.00    -0.644 OA
ENDBRANCH   1   7
TORSDOF 3
ENDMDL
MODEL 17
REMARK VINA RESULT:    -3.328     11.102     11.839
REMARK INTER + INTRA:          -3.956
REMARK INTER:                  -3.780
REMARK INTRA:                  -0.176
REMARK UNBOUND:                -0.044
REMARK  3 active torsions:
REMARK  status: ('A' for Active; 'I' for Inactive)
REMARK    1  A    between atoms: C_1  and  C_2 
REMARK    2  A    between atoms: C_2  and  C_3 
REMARK    3  A    between atoms: C_3  and  C_4 
ROOT
HETATM    1  C   UNL     1     -24.518   7.951  32.355  1.00  0.00     0.019 C 
HETATM    2  C   UNL     1     -25.349   8.669  33.091  1.00  0.00     0.026 C 
ENDROOT
BRANCH   1   3
HETATM    3  C   UNL     1     -23.011   8.197  32.465  1.00  0.00     0.158 C 
BRANCH   3   4
HETATM    4  C   UNL     1     -22.315   6.982  33.068  1.00  0.00     0.177 C 
HETATM    5  O   UNL     1     -21.338   6.449  32.489  1.00  0.00    -0.648 OA
HETATM    6  O   UNL     1     -22.753   6.531  34.152  1.00  0.00    -0.648 OA
ENDBRANCH   3   4
ENDBRANCH   1   3
BRANCH   1   7
HETATM    7  C   UNL     1     -25.048   6.922  31.381  1.00  0.00     0.204 C 
HETATM    8  O   UNL     1     -26.023   6.188  31.720  1.00  0.00    -0.644 OA
HETATM    9  O   UNL     1     -24.499   6.793  30.241  1.00  0.00    -0.644 OA
ENDBRANCH   1   7
TORSDOF 3
ENDMDL
MODEL 18
REMARK VINA RESULT:    -3.300     11.518     12.589
REMARK INTER + INTRA:          -3.923
REMARK INTER:                  -3.730
REMARK INTRA:                  -0.193
REMARK UNBOUND:                -0.044
REMARK  3 active torsions:
REMARK  status: ('A' for Active; 'I' for Inactive)
REMARK    1  A    between atoms: C_1  and  C_2 
REMARK    2  A    between atoms: C_2  and  C_3 
REMARK    3  A    between atoms: C_3  and  C_4 
ROOT
HETATM    1  C   UNL     1     -29.013  11.546  34.478  1.00  0.00     0.019 C 
HETATM    2  C   UNL     1     -29.968  10.809  33.936  1.00  0.00     0.026 C 
ENDROOT
BRANCH   1   3
HETATM    3  C   UNL     1     -29.238  13.049  34.667  1.00  0.00     0.158 C 
BRANCH   3   4
HETATM    4  C   UNL     1     -29.200  13.411  36.147  1.00  0.00     0.177 C 
HETATM    5  O   UNL     1     -28.183  13.947  36.652  1.00  0.00    -0.648 OA
HETATM    6  O   UNL     1     -30.210  13.153  36.843  1.00  0.00    -0.648 OA
ENDBRANCH   3   4
ENDBRANCH   1   3
BRANCH   1   7
HETATM    7  C   UNL     1     -27.693  10.922  34.874  1.00  0.00     0.204 C 
HETATM    8  O   UNL     1     -26.615  11.407  34.418  1.00  0.00    -0.644 OA
HETATM    9  O   UNL     1     -27.680   9.911  35.643  1.00  0.00    -0.644 OA
ENDBRANCH   1   7
TORSDOF 3
ENDMDL
MODEL 19
REMARK VINA RESULT:    -3.272      9.724     11.402
REMARK INTER + INTRA:          -3.890
REMARK INTER:                  -3.694
REMARK INTRA:                  -0.196
REMARK UNBOUND:                -0.044
REMARK  3 active torsions:
REMARK  status: ('A' for Active; 'I' for Inactive)
REMARK    1  A    between atoms: C_1  and  C_2 
REMARK    2  A    between atoms: C_2  and  C_3 
REMARK    3  A    between atoms: C_3  and  C_4 
ROOT
HETATM    1  C   UNL     1     -23.546   7.770  32.673  1.00  0.00     0.019 C 
HETATM    2  C   UNL     1     -22.235   7.715  32.835  1.00  0.00     0.026 C 
ENDROOT
BRANCH   1   3
HETATM    3  C   UNL     1     -24.362   6.475  32.702  1.00  0.00     0.158 C 
BRANCH   3   4
HETATM    4  C   UNL     1     -25.008   6.222  31.344  1.00  0.00     0.177 C 
HETATM    5  O   UNL     1     -26.239   6.399  31.175  1.00  0.00    -0.648 OA
HETATM    6  O   UNL     1     -24.274   5.826  30.408  1.00  0.00    -0.648 OA
ENDBRANCH   3   4
ENDBRANCH   1   3
BRANCH   1   7
HETATM    7  C   UNL     1     -24.235   9.094  32.423  1.00  0.00     0.204 C 
HETATM    8  O   UNL     1     -23.678   9.954  31.678  1.00  0.00    -0.644 OA
HETATM    9  O   UNL     1     -25.353   9.336  32.975  1.00  0.00    -0.644 OA
ENDBRANCH   1   7
TORSDOF 3
ENDMDL
