MODEL 1
REMARK VINA RESULT:    -7.845      0.000      0.000
REMARK INTER + INTRA:          -9.909
REMARK INTER:                  -9.679
REMARK INTRA:                  -0.230
REMARK UNBOUND:                -0.230
REMARK  5 active torsions:
REMARK  status: ('A' for Active; 'I' for Inactive)
REMARK    1  A    between atoms: S_3  and  O_22 
REMARK    2  A    between atoms: C_7  and  O_17 
REMARK    3  A    between atoms: C_8  and  O_19 
REMARK    4  A    between atoms: C_9  and  C_10 
REMARK    5  A    between atoms: C_10  and  O_22 
ROOT
HETATM    1  C   UNL     1      17.254   7.900  11.064  1.00  0.00     0.296 C 
HETATM    2  C   UNL     1      17.604   7.779   9.633  1.00  0.00     0.274 C 
HETATM    3  C   UNL     1      17.733   9.155   8.991  1.00  0.00     0.185 C 
HETATM    4  C   UNL     1      16.525  10.000   9.346  1.00  0.00     0.180 C 
HETATM    5  C   UNL     1      16.421  10.172  10.858  1.00  0.00     0.181 C 
HETATM    6  C   UNL     1      19.523   7.390  10.902  1.00  0.00     0.320 C 
HETATM    7  C   UNL     1      20.920   7.074  11.301  1.00  0.00     0.071 C 
HETATM    8  N   UNL     1      18.958   7.166   9.657  1.00  0.00    -0.038 N 
ATOM      9  HN1 UNL     1      19.550   7.496   8.894  1.00  0.00     0.281 HD
ATOM     10  HN2 UNL     1      18.944   6.177   9.406  1.00  0.00     0.281 HD
HETATM   11  O   UNL     1      18.549   7.968  11.748  1.00  0.00    -0.327 OA
HETATM   12  O   UNL     1      16.390   8.909  11.561  1.00  0.00    -0.349 OA
ENDROOT
BRANCH   5  13
HETATM   13  C   UNL     1      15.173  10.929  11.249  1.00  0.00     0.227 C 
BRANCH  13  14
HETATM   14  O   UNL     1      15.192  11.035  12.693  1.00  0.00    -0.254 OA
BRANCH  14  15
HETATM   15  S   UNL     1      13.891  11.546  13.418  1.00  0.00     0.251 S 
HETATM   16  O   UNL     1      13.292  12.452  12.465  1.00  0.00    -0.572 OA
HETATM   17  O   UNL     1      13.143  10.379  13.740  1.00  0.00    -0.572 OA
HETATM   18  O   UNL     1      14.327  12.224  14.620  1.00  0.00    -0.572 OA
ENDBRANCH  14  15
ENDBRANCH  13  14
ENDBRANCH   5  13
BRANCH   4  19
HETATM   19  O   UNL     1      16.732  11.289   8.775  1.00  0.00    -0.390 OA
ATOM     20  HO  UNL     1      15.875  11.674   8.635  1.00  0.00     0.210 HD
ENDBRANCH   4  19
BRANCH   3  21
HETATM   21  O   UNL     1      17.806   9.023   7.584  1.00  0.00    -0.391 OA
ATOM     22  HO  UNL     1      16.972   8.721   7.245  1.00  0.00     0.210 HD
ENDBRANCH   3  21
TORSDOF 5
ENDMDL
MODEL 2
REMARK VINA RESULT:    -7.674      0.228      1.015
REMARK INTER + INTRA:          -9.699
REMARK INTER:                  -9.465
REMARK INTRA:                  -0.234
REMARK UNBOUND:                -0.230
REMARK  5 active torsions:
REMARK  status: ('A' for Active; 'I' for Inactive)
REMARK    1  A    between atoms: S_3  and  O_22 
REMARK    2  A    between atoms: C_7  and  O_17 
REMARK    3  A    between atoms: C_8  and  O_19 
REMARK    4  A    between atoms: C_9  and  C_10 
REMARK    5  A    between atoms: C_10  and  O_22 
ROOT
HETATM    1  C   UNL     1      17.305   7.685  11.004  1.00  0.00     0.296 C 
HETATM    2  C   UNL     1      17.721   7.703   9.586  1.00  0.00     0.274 C 
HETATM    3  C   UNL     1      17.778   9.131   9.059  1.00  0.00     0.185 C 
HETATM    4  C   UNL     1      16.499   9.861   9.421  1.00  0.00     0.180 C 
HETATM    5  C   UNL     1      16.321   9.904  10.935  1.00  0.00     0.181 C 
HETATM    6  C   UNL     1      19.609   7.345  10.910  1.00  0.00     0.320 C 
HETATM    7  C   UNL     1      21.007   7.094  11.348  1.00  0.00     0.071 C 
HETATM    8  N   UNL     1      19.113   7.183   9.626  1.00  0.00    -0.038 N 
ATOM      9  HN1 UNL     1      19.711   7.612   8.920  1.00  0.00     0.281 HD
ATOM     10  HN2 UNL     1      19.181   6.219   9.300  1.00  0.00     0.281 HD
HETATM   11  O   UNL     1      18.563   7.786  11.752  1.00  0.00    -0.327 OA
HETATM   12  O   UNL     1      16.351   8.590  11.536  1.00  0.00    -0.349 OA
ENDROOT
BRANCH   5  13
HETATM   13  C   UNL     1      15.007  10.541  11.324  1.00  0.00     0.227 C 
BRANCH  13  14
HETATM   14  O   UNL     1      15.221  11.173  12.609  1.00  0.00    -0.254 OA
BRANCH  14  15
HETATM   15  S   UNL     1      13.963  11.474  13.507  1.00  0.00     0.251 S 
HETATM   16  O   UNL     1      13.395  10.171  13.764  1.00  0.00    -0.572 OA
HETATM   17  O   UNL     1      14.456  12.185  14.637  1.00  0.00    -0.572 OA
HETATM   18  O   UNL     1      13.085  12.311  12.719  1.00  0.00    -0.572 OA
ENDBRANCH  14  15
ENDBRANCH  13  14
ENDBRANCH   5  13
BRANCH   4  19
HETATM   19  O   UNL     1      16.638  11.202   8.960  1.00  0.00    -0.390 OA
ATOM     20  HO  UNL     1      15.808  11.451   8.571  1.00  0.00     0.210 HD
ENDBRANCH   4  19
BRANCH   3  21
HETATM   21  O   UNL     1      17.919   9.117   7.650  1.00  0.00    -0.391 OA
ATOM     22  HO  UNL     1      18.839   9.077   7.419  1.00  0.00     0.210 HD
ENDBRANCH   3  21
TORSDOF 5
ENDMDL
MODEL 3
REMARK VINA RESULT:    -7.197      3.342      5.877
REMARK INTER + INTRA:          -9.109
REMARK INTER:                  -8.822
REMARK INTRA:                  -0.287
REMARK UNBOUND:                -0.230
REMARK  5 active torsions:
REMARK  status: ('A' for Active; 'I' for Inactive)
REMARK    1  A    between atoms: S_3  and  O_22 
REMARK    2  A    between atoms: C_7  and  O_17 
REMARK    3  A    between atoms: C_8  and  O_19 
REMARK    4  A    between atoms: C_9  and  C_10 
REMARK    5  A    between atoms: C_10  and  O_22 
ROOT
HETATM    1  C   UNL     1      15.983   8.353  12.034  1.00  0.00     0.296 C 
HETATM    2  C   UNL     1      15.327   9.675  11.950  1.00  0.00     0.274 C 
HETATM    3  C   UNL     1      15.431  10.240  10.538  1.00  0.00     0.185 C 
HETATM    4  C   UNL     1      16.864  10.138  10.051  1.00  0.00     0.180 C 
HETATM    5  C   UNL     1      17.317   8.681  10.031  1.00  0.00     0.181 C 
HETATM    6  C   UNL     1      13.676   8.026  11.950  1.00  0.00     0.320 C 
HETATM    7  C   UNL     1      12.358   7.339  11.939  1.00  0.00     0.071 C 
HETATM    8  N   UNL     1      13.896   9.370  12.207  1.00  0.00    -0.038 N 
ATOM      9  HN1 UNL     1      13.266   9.976  11.681  1.00  0.00     0.281 HD
ATOM     10  HN2 UNL     1      13.600   9.641  13.145  1.00  0.00     0.281 HD
HETATM   11  O   UNL     1      14.919   7.400  11.701  1.00  0.00    -0.327 OA
HETATM   12  O   UNL     1      17.163   8.033  11.314  1.00  0.00    -0.349 OA
ENDROOT
BRANCH   5  13
HETATM   13  C   UNL     1      18.771   8.555   9.642  1.00  0.00     0.227 C 
BRANCH  13  14
HETATM   14  O   UNL     1      19.182   7.217  10.013  1.00  0.00    -0.254 OA
BRANCH  14  15
HETATM   15  S   UNL     1      20.670   6.999  10.480  1.00  0.00     0.251 S 
HETATM   16  O   UNL     1      21.458   7.637   9.451  1.00  0.00    -0.572 OA
HETATM   17  O   UNL     1      20.752   7.564  11.784  1.00  0.00    -0.572 OA
HETATM   18  O   UNL     1      20.882   5.569  10.527  1.00  0.00    -0.572 OA
ENDBRANCH  14  15
ENDBRANCH  13  14
ENDBRANCH   5  13
BRANCH   4  19
HETATM   19  O   UNL     1      16.885  10.619   8.710  1.00  0.00    -0.390 OA
ATOM     20  HO  UNL     1      15.983  10.760   8.449  1.00  0.00     0.210 HD
ENDBRANCH   4  19
BRANCH   3  21
HETATM   21  O   UNL     1      15.039  11.600  10.536  1.00  0.00    -0.391 OA
ATOM     22  HO  UNL     1      15.245  11.992   9.696  1.00  0.00     0.210 HD
ENDBRANCH   3  21
TORSDOF 5
ENDMDL
MODEL 4
REMARK VINA RESULT:    -6.922      1.285      1.372
REMARK INTER + INTRA:          -8.771
REMARK INTER:                  -8.351
REMARK INTRA:                  -0.420
REMARK UNBOUND:                -0.230
REMARK  5 active torsions:
REMARK  status: ('A' for Active; 'I' for Inactive)
REMARK    1  A    between atoms: S_3  and  O_22 
REMARK    2  A    between atoms: C_7  and  O_17 
REMARK    3  A    between atoms: C_8  and  O_19 
REMARK    4  A    between atoms: C_9  and  C_10 
REMARK    5  A    between atoms: C_10  and  O_22 
ROOT
HETATM    1  C   UNL     1      17.481   7.065   9.706  1.00  0.00     0.296 C 
HETATM    2  C   UNL     1      18.199   7.537   8.504  1.00  0.00     0.274 C 
HETATM    3  C   UNL     1      18.292   9.058   8.494  1.00  0.00     0.185 C 
HETATM    4  C   UNL     1      16.926   9.655   8.772  1.00  0.00     0.180 C 
HETATM    5  C   UNL     1      16.415   9.204  10.136  1.00  0.00     0.181 C 
HETATM    6  C   UNL     1      19.765   6.727  10.033  1.00  0.00     0.320 C 
HETATM    7  C   UNL     1      21.043   6.318  10.672  1.00  0.00     0.071 C 
HETATM    8  N   UNL     1      19.575   7.005   8.688  1.00  0.00    -0.038 N 
ATOM      9  HN1 UNL     1      20.289   7.629   8.314  1.00  0.00     0.281 HD
ATOM     10  HN2 UNL     1      19.766   6.199   8.093  1.00  0.00     0.281 HD
HETATM   11  O   UNL     1      18.535   6.889  10.711  1.00  0.00    -0.327 OA
HETATM   12  O   UNL     1      16.384   7.765  10.270  1.00  0.00    -0.349 OA
ENDROOT
BRANCH   5  13
HETATM   13  C   UNL     1      15.015   9.705  10.401  1.00  0.00     0.227 C 
BRANCH  13  14
HETATM   14  O   UNL     1      15.141  11.094  10.790  1.00  0.00    -0.254 OA
BRANCH  14  15
HETATM   15  S   UNL     1      14.139  11.658  11.865  1.00  0.00     0.251 S 
HETATM   16  O   UNL     1      13.915  13.025  11.453  1.00  0.00    -0.572 OA
HETATM   17  O   UNL     1      13.011  10.793  11.835  1.00  0.00    -0.572 OA
HETATM   18  O   UNL     1      14.815  11.574  13.142  1.00  0.00    -0.572 OA
ENDBRANCH  14  15
ENDBRANCH  13  14
ENDBRANCH   5  13
BRANCH   4  19
HETATM   19  O   UNL     1      17.088  11.070   8.813  1.00  0.00    -0.390 OA
ATOM     20  HO  UNL     1      17.108  11.376   7.914  1.00  0.00     0.210 HD
ENDBRANCH   4  19
BRANCH   3  21
HETATM   21  O   UNL     1      18.741   9.503   7.227  1.00  0.00    -0.391 OA
ATOM     22  HO  UNL     1      18.903  10.438   7.254  1.00  0.00     0.210 HD
ENDBRANCH   3  21
TORSDOF 5
ENDMDL
MODEL 5
REMARK VINA RESULT:    -6.826      1.608      2.058
REMARK INTER + INTRA:          -8.652
REMARK INTER:                  -8.109
REMARK INTRA:                  -0.543
REMARK UNBOUND:                -0.230
REMARK  5 active torsions:
REMARK  status: ('A' for Active; 'I' for Inactive)
REMARK    1  A    between atoms: S_3  and  O_22 
REMARK    2  A    between atoms: C_7  and  O_17 
REMARK    3  A    between atoms: C_8  and  O_19 
REMARK    4  A    between atoms: C_9  and  C_10 
REMARK    5  A    between atoms: C_10  and  O_22 
ROOT
HETATM    1  C   UNL     1      17.160   7.656  11.271  1.00  0.00     0.296 C 
HETATM    2  C   UNL     1      17.337   7.845   9.816  1.00  0.00     0.274 C 
HETATM    3  C   UNL     1      17.264   9.323   9.451  1.00  0.00     0.185 C 
HETATM    4  C   UNL     1      16.041   9.949  10.094  1.00  0.00     0.180 C 
HETATM    5  C   UNL     1      16.113   9.821  11.612  1.00  0.00     0.181 C 
HETATM    6  C   UNL     1      19.426   7.438  10.771  1.00  0.00     0.320 C 
HETATM    7  C   UNL     1      20.884   7.208  10.948  1.00  0.00     0.071 C 
HETATM    8  N   UNL     1      18.731   7.391   9.573  1.00  0.00    -0.038 N 
ATOM      9  HN1 UNL     1      19.191   7.921   8.833  1.00  0.00     0.281 HD
ATOM     10  HN2 UNL     1      18.772   6.472   9.134  1.00  0.00     0.281 HD
HETATM   11  O   UNL     1      18.520   7.736  11.814  1.00  0.00    -0.327 OA
HETATM   12  O   UNL     1      16.280   8.453  12.048  1.00  0.00    -0.349 OA
ENDROOT
BRANCH   5  13
HETATM   13  C   UNL     1      14.864  10.350  12.276  1.00  0.00     0.227 C 
BRANCH  13  14
HETATM   14  O   UNL     1      13.801  10.242  11.298  1.00  0.00    -0.254 OA
BRANCH  14  15
HETATM   15  S   UNL     1      12.530   9.390  11.672  1.00  0.00     0.251 S 
HETATM   16  O   UNL     1      13.065   8.262  12.399  1.00  0.00    -0.572 OA
HETATM   17  O   UNL     1      11.678  10.267  12.400  1.00  0.00    -0.572 OA
HETATM   18  O   UNL     1      11.915   8.997  10.423  1.00  0.00    -0.572 OA
ENDBRANCH  14  15
ENDBRANCH  13  14
ENDBRANCH   5  13
BRANCH   4  19
HETATM   19  O   UNL     1      16.063  11.337   9.772  1.00  0.00    -0.390 OA
ATOM     20  HO  UNL     1      16.404  11.413   8.889  1.00  0.00     0.210 HD
ENDBRANCH   4  19
BRANCH   3  21
HETATM   21  O   UNL     1      17.171   9.467   8.046  1.00  0.00    -0.391 OA
ATOM     22  HO  UNL     1      17.235   8.615   7.631  1.00  0.00     0.210 HD
ENDBRANCH   3  21
TORSDOF 5
ENDMDL
MODEL 6
REMARK VINA RESULT:    -6.469      3.319      6.064
REMARK INTER + INTRA:          -8.212
REMARK INTER:                  -7.901
REMARK INTRA:                  -0.311
REMARK UNBOUND:                -0.230
REMARK  5 active torsions:
REMARK  status: ('A' for Active; 'I' for Inactive)
REMARK    1  A    between atoms: S_3  and  O_22 
REMARK    2  A    between atoms: C_7  and  O_17 
REMARK    3  A    between atoms: C_8  and  O_19 
REMARK    4  A    between atoms: C_9  and  C_10 
REMARK    5  A    between atoms: C_10  and  O_22 
ROOT
HETATM    1  C   UNL     1      16.541   9.934  10.429  1.00  0.00     0.296 C 
HETATM    2  C   UNL     1      15.181   9.714   9.895  1.00  0.00     0.274 C 
HETATM    3  C   UNL     1      14.689   8.313  10.234  1.00  0.00     0.185 C 
HETATM    4  C   UNL     1      15.754   7.295   9.874  1.00  0.00     0.180 C 
HETATM    5  C   UNL     1      17.036   7.567  10.655  1.00  0.00     0.181 C 
HETATM    6  C   UNL     1      15.020  11.023  11.820  1.00  0.00     0.320 C 
HETATM    7  C   UNL     1      14.481  11.846  12.934  1.00  0.00     0.071 C 
HETATM    8  N   UNL     1      14.348  10.680  10.657  1.00  0.00    -0.038 N 
ATOM      9  HN1 UNL     1      13.408  10.327  10.839  1.00  0.00     0.281 HD
ATOM     10  HN2 UNL     1      14.086  11.495  10.103  1.00  0.00     0.281 HD
HETATM   11  O   UNL     1      16.319  10.466  11.778  1.00  0.00    -0.327 OA
HETATM   12  O   UNL     1      17.526   8.913  10.468  1.00  0.00    -0.349 OA
ENDROOT
BRANCH   5  13
HETATM   13  C   UNL     1      18.147   6.628  10.247  1.00  0.00     0.227 C 
BRANCH  13  14
HETATM   14  O   UNL     1      19.267   7.461   9.862  1.00  0.00    -0.254 OA
BRANCH  14  15
HETATM   15  S   UNL     1      20.699   7.072  10.391  1.00  0.00     0.251 S 
HETATM   16  O   UNL     1      21.601   7.661   9.429  1.00  0.00    -0.572 OA
HETATM   17  O   UNL     1      20.770   7.576  11.720  1.00  0.00    -0.572 OA
HETATM   18  O   UNL     1      20.760   5.626  10.388  1.00  0.00    -0.572 OA
ENDBRANCH  14  15
ENDBRANCH  13  14
ENDBRANCH   5  13
BRANCH   4  19
HETATM   19  O   UNL     1      15.264   6.017  10.271  1.00  0.00    -0.390 OA
ATOM     20  HO  UNL     1      14.880   6.122  11.133  1.00  0.00     0.210 HD
ENDBRANCH   4  19
BRANCH   3  21
HETATM   21  O   UNL     1      13.512   8.027   9.501  1.00  0.00    -0.391 OA
ATOM     22  HO  UNL     1      13.541   8.470   8.661  1.00  0.00     0.210 HD
ENDBRANCH   3  21
TORSDOF 5
ENDMDL
MODEL 7
REMARK VINA RESULT:    -6.432      3.310      6.250
REMARK INTER + INTRA:          -8.166
REMARK INTER:                  -8.033
REMARK INTRA:                  -0.133
REMARK UNBOUND:                -0.230
REMARK  5 active torsions:
REMARK  status: ('A' for Active; 'I' for Inactive)
REMARK    1  A    between atoms: S_3  and  O_22 
REMARK    2  A    between atoms: C_7  and  O_17 
REMARK    3  A    between atoms: C_8  and  O_19 
REMARK    4  A    between atoms: C_9  and  C_10 
REMARK    5  A    between atoms: C_10  and  O_22 
ROOT
HETATM    1  C   UNL     1      15.578   9.965   9.723  1.00  0.00     0.296 C 
HETATM    2  C   UNL     1      14.920   9.192  10.798  1.00  0.00     0.274 C 
HETATM    3  C   UNL     1      15.940   8.726  11.829  1.00  0.00     0.185 C 
HETATM    4  C   UNL     1      17.119   8.081  11.126  1.00  0.00     0.180 C 
HETATM    5  C   UNL     1      17.791   9.079  10.188  1.00  0.00     0.181 C 
HETATM    6  C   UNL     1      14.513  11.461  11.159  1.00  0.00     0.320 C 
HETATM    7  C   UNL     1      14.016  12.739  11.734  1.00  0.00     0.071 C 
HETATM    8  N   UNL     1      14.041  10.193  11.457  1.00  0.00    -0.038 N 
ATOM      9  HN1 UNL     1      13.953  10.035  12.461  1.00  0.00     0.281 HD
ATOM     10  HN2 UNL     1      13.058  10.074  11.210  1.00  0.00     0.281 HD
HETATM   11  O   UNL     1      15.550  11.350  10.204  1.00  0.00    -0.327 OA
HETATM   12  O   UNL     1      16.870   9.649   9.231  1.00  0.00    -0.349 OA
ENDROOT
BRANCH   5  13
HETATM   13  C   UNL     1      18.910   8.439   9.401  1.00  0.00     0.227 C 
BRANCH  13  14
HETATM   14  O   UNL     1      19.239   7.205  10.084  1.00  0.00    -0.254 OA
BRANCH  14  15
HETATM   15  S   UNL     1      20.743   6.951  10.477  1.00  0.00     0.251 S 
HETATM   16  O   UNL     1      20.873   7.564  11.779  1.00  0.00    -0.572 OA
HETATM   17  O   UNL     1      20.925   5.541  10.419  1.00  0.00    -0.572 OA
HETATM   18  O   UNL     1      21.548   7.614   9.475  1.00  0.00    -0.572 OA
ENDBRANCH  14  15
ENDBRANCH  13  14
ENDBRANCH   5  13
BRANCH   4  19
HETATM   19  O   UNL     1      18.063   7.725  12.132  1.00  0.00    -0.390 OA
ATOM     20  HO  UNL     1      17.712   8.023  12.963  1.00  0.00     0.210 HD
ENDBRANCH   4  19
BRANCH   3  21
HETATM   21  O   UNL     1      15.346   7.779  12.697  1.00  0.00    -0.391 OA
ATOM     22  HO  UNL     1      15.592   6.901  12.431  1.00  0.00     0.210 HD
ENDBRANCH   3  21
TORSDOF 5
ENDMDL
MODEL 8
REMARK VINA RESULT:    -6.179      2.599      3.843
REMARK INTER + INTRA:          -7.853
REMARK INTER:                  -7.548
REMARK INTRA:                  -0.305
REMARK UNBOUND:                -0.230
REMARK  5 active torsions:
REMARK  status: ('A' for Active; 'I' for Inactive)
REMARK    1  A    between atoms: S_3  and  O_22 
REMARK    2  A    between atoms: C_7  and  O_17 
REMARK    3  A    between atoms: C_8  and  O_19 
REMARK    4  A    between atoms: C_9  and  C_10 
REMARK    5  A    between atoms: C_10  and  O_22 
ROOT
HETATM    1  C   UNL     1      17.510   6.478   8.756  1.00  0.00     0.296 C 
HETATM    2  C   UNL     1      18.942   6.208   8.510  1.00  0.00     0.274 C 
HETATM    3  C   UNL     1      19.733   6.266   9.811  1.00  0.00     0.185 C 
HETATM    4  C   UNL     1      19.380   7.533  10.568  1.00  0.00     0.180 C 
HETATM    5  C   UNL     1      17.891   7.559  10.897  1.00  0.00     0.181 C 
HETATM    6  C   UNL     1      17.784   4.183   8.457  1.00  0.00     0.320 C 
HETATM    7  C   UNL     1      17.459   2.738   8.327  1.00  0.00     0.071 C 
HETATM    8  N   UNL     1      18.954   4.798   8.040  1.00  0.00    -0.038 N 
ATOM      9  HN1 UNL     1      19.789   4.294   8.338  1.00  0.00     0.281 HD
ATOM     10  HN2 UNL     1      19.097   4.723   7.033  1.00  0.00     0.281 HD
HETATM   11  O   UNL     1      16.934   5.157   9.027  1.00  0.00    -0.327 OA
HETATM   12  O   UNL     1      17.059   7.412   9.725  1.00  0.00    -0.349 OA
ENDROOT
BRANCH   5  13
HETATM   13  C   UNL     1      17.491   8.853  11.567  1.00  0.00     0.227 C 
BRANCH  13  14
HETATM   14  O   UNL     1      16.044   8.860  11.616  1.00  0.00    -0.254 OA
BRANCH  14  15
HETATM   15  S   UNL     1      15.293  10.184  11.213  1.00  0.00     0.251 S 
HETATM   16  O   UNL     1      14.065   9.721  10.610  1.00  0.00    -0.572 OA
HETATM   17  O   UNL     1      15.167  10.937  12.413  1.00  0.00    -0.572 OA
HETATM   18  O   UNL     1      16.146  10.869  10.265  1.00  0.00    -0.572 OA
ENDBRANCH  14  15
ENDBRANCH  13  14
ENDBRANCH   5  13
BRANCH   4  19
HETATM   19  O   UNL     1      20.098   7.499  11.798  1.00  0.00    -0.390 OA
ATOM     20  HO  UNL     1      21.023   7.493  11.581  1.00  0.00     0.210 HD
ENDBRANCH   4  19
BRANCH   3  21
HETATM   21  O   UNL     1      21.120   6.268   9.529  1.00  0.00    -0.391 OA
ATOM     22  HO  UNL     1      21.421   7.159   9.400  1.00  0.00     0.210 HD
ENDBRANCH   3  21
TORSDOF 5
ENDMDL
MODEL 9
REMARK VINA RESULT:    -6.159      1.817      2.299
REMARK INTER + INTRA:          -7.829
REMARK INTER:                  -7.152
REMARK INTRA:                  -0.677
REMARK UNBOUND:                -0.230
REMARK  5 active torsions:
REMARK  status: ('A' for Active; 'I' for Inactive)
REMARK    1  A    between atoms: S_3  and  O_22 
REMARK    2  A    between atoms: C_7  and  O_17 
REMARK    3  A    between atoms: C_8  and  O_19 
REMARK    4  A    between atoms: C_9  and  C_10 
REMARK    5  A    between atoms: C_10  and  O_22 
ROOT
HETATM    1  C   UNL     1      17.723   8.543  10.524  1.00  0.00     0.296 C 
HETATM    2  C   UNL     1      16.897   7.652   9.683  1.00  0.00     0.274 C 
HETATM    3  C   UNL     1      15.733   8.419   9.067  1.00  0.00     0.185 C 
HETATM    4  C   UNL     1      15.025   9.223  10.140  1.00  0.00     0.180 C 
HETATM    5  C   UNL     1      15.985  10.220  10.780  1.00  0.00     0.181 C 
HETATM    6  C   UNL     1      18.832   8.202   8.502  1.00  0.00     0.320 C 
HETATM    7  C   UNL     1      19.878   8.276   7.448  1.00  0.00     0.071 C 
HETATM    8  N   UNL     1      17.814   7.265   8.580  1.00  0.00    -0.038 N 
ATOM      9  HN1 UNL     1      17.328   7.142   7.692  1.00  0.00     0.281 HD
ATOM     10  HN2 UNL     1      18.167   6.313   8.680  1.00  0.00     0.281 HD
HETATM   11  O   UNL     1      18.725   9.086   9.601  1.00  0.00    -0.327 OA
HETATM   12  O   UNL     1      17.172   9.588  11.310  1.00  0.00    -0.349 OA
ENDROOT
BRANCH   5  13
HETATM   13  C   UNL     1      15.334  10.969  11.919  1.00  0.00     0.227 C 
BRANCH  13  14
HETATM   14  O   UNL     1      14.149  10.221  12.279  1.00  0.00    -0.254 OA
BRANCH  14  15
HETATM   15  S   UNL     1      12.835  11.024  12.611  1.00  0.00     0.251 S 
HETATM   16  O   UNL     1      13.104  11.618  13.900  1.00  0.00    -0.572 OA
HETATM   17  O   UNL     1      12.646  11.922  11.525  1.00  0.00    -0.572 OA
HETATM   18  O   UNL     1      11.762  10.054  12.667  1.00  0.00    -0.572 OA
ENDBRANCH  14  15
ENDBRANCH  13  14
ENDBRANCH   5  13
BRANCH   4  19
HETATM   19  O   UNL     1      13.993   9.964   9.495  1.00  0.00    -0.390 OA
ATOM     20  HO  UNL     1      14.278  10.870   9.463  1.00  0.00     0.210 HD
ENDBRANCH   4  19
BRANCH   3  21
HETATM   21  O   UNL     1      14.814   7.512   8.488  1.00  0.00    -0.391 OA
ATOM     22  HO  UNL     1      15.154   7.194   7.660  1.00  0.00     0.210 HD
ENDBRANCH   3  21
TORSDOF 5
ENDMDL
MODEL 10
REMARK VINA RESULT:    -6.124      3.403      6.142
REMARK INTER + INTRA:          -7.786
REMARK INTER:                  -7.337
REMARK INTRA:                  -0.449
REMARK UNBOUND:                -0.230
REMARK  5 active torsions:
REMARK  status: ('A' for Active; 'I' for Inactive)
REMARK    1  A    between atoms: S_3  and  O_22 
REMARK    2  A    between atoms: C_7  and  O_17 
REMARK    3  A    between atoms: C_8  and  O_19 
REMARK    4  A    between atoms: C_9  and  C_10 
REMARK    5  A    between atoms: C_10  and  O_22 
ROOT
HETATM    1  C   UNL     1      15.607   9.572   9.820  1.00  0.00     0.296 C 
HETATM    2  C   UNL     1      15.254   8.812   8.603  1.00  0.00     0.274 C 
HETATM    3  C   UNL     1      15.451   7.317   8.823  1.00  0.00     0.185 C 
HETATM    4  C   UNL     1      16.817   7.066   9.433  1.00  0.00     0.180 C 
HETATM    5  C   UNL     1      16.941   7.780  10.775  1.00  0.00     0.181 C 
HETATM    6  C   UNL     1      13.283   9.449   9.677  1.00  0.00     0.320 C 
HETATM    7  C   UNL     1      11.847   9.649  10.004  1.00  0.00     0.071 C 
HETATM    8  N   UNL     1      13.795   9.055   8.451  1.00  0.00    -0.038 N 
ATOM      9  HN1 UNL     1      13.303   8.251   8.062  1.00  0.00     0.281 HD
ATOM     10  HN2 UNL     1      13.585   9.721   7.708  1.00  0.00     0.281 HD
HETATM   11  O   UNL     1      14.354   9.639  10.580  1.00  0.00    -0.327 OA
HETATM   12  O   UNL     1      16.674   9.197  10.677  1.00  0.00    -0.349 OA
ENDROOT
BRANCH   5  13
HETATM   13  C   UNL     1      18.324   7.628  11.361  1.00  0.00     0.227 C 
BRANCH  13  14
HETATM   14  O   UNL     1      19.165   7.108  10.303  1.00  0.00    -0.254 OA
BRANCH  14  15
HETATM   15  S   UNL     1      20.709   6.968  10.582  1.00  0.00     0.251 S 
HETATM   16  O   UNL     1      21.330   7.641   9.464  1.00  0.00    -0.572 OA
HETATM   17  O   UNL     1      20.924   7.540  11.866  1.00  0.00    -0.572 OA
HETATM   18  O   UNL     1      20.997   5.550  10.598  1.00  0.00    -0.572 OA
ENDBRANCH  14  15
ENDBRANCH  13  14
ENDBRANCH   5  13
BRANCH   4  19
HETATM   19  O   UNL     1      16.916   5.665   9.674  1.00  0.00    -0.390 OA
ATOM     20  HO  UNL     1      16.991   5.240   8.828  1.00  0.00     0.210 HD
ENDBRANCH   4  19
BRANCH   3  21
HETATM   21  O   UNL     1      15.364   6.634   7.587  1.00  0.00    -0.391 OA
ATOM     22  HO  UNL     1      16.080   6.899   7.022  1.00  0.00     0.210 HD
ENDBRANCH   3  21
TORSDOF 5
ENDMDL
MODEL 11
REMARK VINA RESULT:    -6.119      5.552      7.512
REMARK INTER + INTRA:          -7.779
REMARK INTER:                  -7.380
REMARK INTRA:                  -0.400
REMARK UNBOUND:                -0.230
REMARK  5 active torsions:
REMARK  status: ('A' for Active; 'I' for Inactive)
REMARK    1  A    between atoms: S_3  and  O_22 
REMARK    2  A    between atoms: C_7  and  O_17 
REMARK    3  A    between atoms: C_8  and  O_19 
REMARK    4  A    between atoms: C_9  and  C_10 
REMARK    5  A    between atoms: C_10  and  O_22 
ROOT
HETATM    1  C   UNL     1      11.444   9.812  11.704  1.00  0.00     0.296 C 
HETATM    2  C   UNL     1      11.659  10.621  10.486  1.00  0.00     0.274 C 
HETATM    3  C   UNL     1      10.699  11.804  10.448  1.00  0.00     0.185 C 
HETATM    4  C   UNL     1       9.287  11.325  10.728  1.00  0.00     0.180 C 
HETATM    5  C   UNL     1       9.209  10.674  12.105  1.00  0.00     0.181 C 
HETATM    6  C   UNL     1      13.352  11.114  12.015  1.00  0.00     0.320 C 
HETATM    7  C   UNL     1      14.567  11.691  12.649  1.00  0.00     0.071 C 
HETATM    8  N   UNL     1      13.032  11.163  10.667  1.00  0.00    -0.038 N 
ATOM      9  HN1 UNL     1      13.137  12.099  10.275  1.00  0.00     0.281 HD
ATOM     10  HN2 UNL     1      13.720  10.688  10.085  1.00  0.00     0.281 HD
HETATM   11  O   UNL     1      12.333  10.416  12.702  1.00  0.00    -0.327 OA
HETATM   12  O   UNL     1      10.159   9.597  12.266  1.00  0.00    -0.349 OA
ENDROOT
BRANCH   5  13
HETATM   13  C   UNL     1       7.838  10.102  12.374  1.00  0.00     0.227 C 
BRANCH  13  14
HETATM   14  O   UNL     1       7.153  11.055  13.222  1.00  0.00    -0.254 OA
BRANCH  14  15
HETATM   15  S   UNL     1       6.185  10.500  14.334  1.00  0.00     0.251 S 
HETATM   16  O   UNL     1       5.258   9.665  13.606  1.00  0.00    -0.572 OA
HETATM   17  O   UNL     1       7.020   9.845  15.282  1.00  0.00    -0.572 OA
HETATM   18  O   UNL     1       5.539  11.650  14.929  1.00  0.00    -0.572 OA
ENDBRANCH  14  15
ENDBRANCH  13  14
ENDBRANCH   5  13
BRANCH   4  19
HETATM   19  O   UNL     1       8.450  12.477  10.742  1.00  0.00    -0.390 OA
ATOM     20  HO  UNL     1       8.567  12.918   9.909  1.00  0.00     0.210 HD
ENDBRANCH   4  19
BRANCH   3  21
HETATM   21  O   UNL     1      10.735  12.410   9.169  1.00  0.00    -0.391 OA
ATOM     22  HO  UNL     1      11.115  13.277   9.235  1.00  0.00     0.210 HD
ENDBRANCH   3  21
TORSDOF 5
ENDMDL
MODEL 12
REMARK VINA RESULT:    -6.069      2.599      3.810
REMARK INTER + INTRA:          -7.718
REMARK INTER:                  -7.441
REMARK INTRA:                  -0.278
REMARK UNBOUND:                -0.230
REMARK  5 active torsions:
REMARK  status: ('A' for Active; 'I' for Inactive)
REMARK    1  A    between atoms: S_3  and  O_22 
REMARK    2  A    between atoms: C_7  and  O_17 
REMARK    3  A    between atoms: C_8  and  O_19 
REMARK    4  A    between atoms: C_9  and  C_10 
REMARK    5  A    between atoms: C_10  and  O_22 
ROOT
HETATM    1  C   UNL     1      17.393   6.354   8.796  1.00  0.00     0.296 C 
HETATM    2  C   UNL     1      18.833   6.197   8.503  1.00  0.00     0.274 C 
HETATM    3  C   UNL     1      19.659   6.317   9.778  1.00  0.00     0.185 C 
HETATM    4  C   UNL     1      19.233   7.552  10.549  1.00  0.00     0.180 C 
HETATM    5  C   UNL     1      17.758   7.461  10.927  1.00  0.00     0.181 C 
HETATM    6  C   UNL     1      17.837   4.087   8.482  1.00  0.00     0.320 C 
HETATM    7  C   UNL     1      17.623   2.621   8.359  1.00  0.00     0.071 C 
HETATM    8  N   UNL     1      18.941   4.792   8.029  1.00  0.00    -0.038 N 
ATOM      9  HN1 UNL     1      19.822   4.355   8.299  1.00  0.00     0.281 HD
ATOM     10  HN2 UNL     1      19.056   4.728   7.017  1.00  0.00     0.281 HD
HETATM   11  O   UNL     1      16.932   4.991   9.082  1.00  0.00    -0.327 OA
HETATM   12  O   UNL     1      16.902   7.249   9.781  1.00  0.00    -0.349 OA
ENDROOT
BRANCH   5  13
HETATM   13  C   UNL     1      17.280   8.719  11.612  1.00  0.00     0.227 C 
BRANCH  13  14
HETATM   14  O   UNL     1      15.994   8.404  12.199  1.00  0.00    -0.254 OA
BRANCH  14  15
HETATM   15  S   UNL     1      14.877   9.513  12.181  1.00  0.00     0.251 S 
HETATM   16  O   UNL     1      14.320   9.472  13.513  1.00  0.00    -0.572 OA
HETATM   17  O   UNL     1      15.534  10.718  11.805  1.00  0.00    -0.572 OA
HETATM   18  O   UNL     1      13.918   9.116  11.173  1.00  0.00    -0.572 OA
ENDBRANCH  14  15
ENDBRANCH  13  14
ENDBRANCH   5  13
BRANCH   4  19
HETATM   19  O   UNL     1      19.991   7.575  11.755  1.00  0.00    -0.390 OA
ATOM     20  HO  UNL     1      20.851   7.226  11.551  1.00  0.00     0.210 HD
ENDBRANCH   4  19
BRANCH   3  21
HETATM   21  O   UNL     1      21.032   6.428   9.451  1.00  0.00    -0.391 OA
ATOM     22  HO  UNL     1      21.533   6.632  10.231  1.00  0.00     0.210 HD
ENDBRANCH   3  21
TORSDOF 5
ENDMDL
MODEL 13
REMARK VINA RESULT:    -5.899      2.114      2.242
REMARK INTER + INTRA:          -7.508
REMARK INTER:                  -6.791
REMARK INTRA:                  -0.717
REMARK UNBOUND:                -0.230
REMARK  5 active torsions:
REMARK  status: ('A' for Active; 'I' for Inactive)
REMARK    1  A    between atoms: S_3  and  O_22 
REMARK    2  A    between atoms: C_7  and  O_17 
REMARK    3  A    between atoms: C_8  and  O_19 
REMARK    4  A    between atoms: C_9  and  C_10 
REMARK    5  A    between atoms: C_10  and  O_22 
ROOT
HETATM    1  C   UNL     1      15.626   6.730  10.128  1.00  0.00     0.296 C 
HETATM    2  C   UNL     1      15.575   7.398   8.810  1.00  0.00     0.274 C 
HETATM    3  C   UNL     1      16.028   8.848   8.922  1.00  0.00     0.185 C 
HETATM    4  C   UNL     1      15.308   9.521  10.075  1.00  0.00     0.180 C 
HETATM    5  C   UNL     1      15.618   8.808  11.387  1.00  0.00     0.181 C 
HETATM    6  C   UNL     1      17.471   6.040   8.883  1.00  0.00     0.320 C 
HETATM    7  C   UNL     1      18.720   5.327   8.507  1.00  0.00     0.071 C 
HETATM    8  N   UNL     1      16.596   6.669   8.012  1.00  0.00    -0.038 N 
ATOM      9  HN1 UNL     1      17.075   7.273   7.345  1.00  0.00     0.281 HD
ATOM     10  HN2 UNL     1      16.180   6.022   7.342  1.00  0.00     0.281 HD
HETATM   11  O   UNL     1      16.982   6.177  10.202  1.00  0.00    -0.327 OA
HETATM   12  O   UNL     1      15.308   7.397  11.339  1.00  0.00    -0.349 OA
ENDROOT
BRANCH   5  13
HETATM   13  C   UNL     1      14.839   9.396  12.539  1.00  0.00     0.227 C 
BRANCH  13  14
HETATM   14  O   UNL     1      13.626   9.949  11.976  1.00  0.00    -0.254 OA
BRANCH  14  15
HETATM   15  S   UNL     1      13.059  11.282  12.593  1.00  0.00     0.251 S 
HETATM   16  O   UNL     1      11.816  11.495  11.889  1.00  0.00    -0.572 OA
HETATM   17  O   UNL     1      12.964  11.050  13.994  1.00  0.00    -0.572 OA
HETATM   18  O   UNL     1      14.034  12.314  12.311  1.00  0.00    -0.572 OA
ENDBRANCH  14  15
ENDBRANCH  13  14
ENDBRANCH   5  13
BRANCH   4  19
HETATM   19  O   UNL     1      15.818  10.848  10.169  1.00  0.00    -0.390 OA
ATOM     20  HO  UNL     1      16.630  10.801  10.659  1.00  0.00     0.210 HD
ENDBRANCH   4  19
BRANCH   3  21
HETATM   21  O   UNL     1      15.728   9.539   7.724  1.00  0.00    -0.391 OA
ATOM     22  HO  UNL     1      14.809   9.776   7.711  1.00  0.00     0.210 HD
ENDBRANCH   3  21
TORSDOF 5
ENDMDL
MODEL 14
REMARK VINA RESULT:    -5.859      3.966      6.468
REMARK INTER + INTRA:          -7.459
REMARK INTER:                  -7.029
REMARK INTRA:                  -0.430
REMARK UNBOUND:                -0.230
REMARK  5 active torsions:
REMARK  status: ('A' for Active; 'I' for Inactive)
REMARK    1  A    between atoms: S_3  and  O_22 
REMARK    2  A    between atoms: C_7  and  O_17 
REMARK    3  A    between atoms: C_8  and  O_19 
REMARK    4  A    between atoms: C_9  and  C_10 
REMARK    5  A    between atoms: C_10  and  O_22 
ROOT
HETATM    1  C   UNL     1      17.607   9.247  10.405  1.00  0.00     0.296 C 
HETATM    2  C   UNL     1      16.839   9.862   9.302  1.00  0.00     0.274 C 
HETATM    3  C   UNL     1      15.965   8.825   8.608  1.00  0.00     0.185 C 
HETATM    4  C   UNL     1      16.791   7.595   8.284  1.00  0.00     0.180 C 
HETATM    5  C   UNL     1      17.360   6.983   9.560  1.00  0.00     0.181 C 
HETATM    6  C   UNL     1      15.822  10.432  11.323  1.00  0.00     0.320 C 
HETATM    7  C   UNL     1      14.904  11.023  12.332  1.00  0.00     0.071 C 
HETATM    8  N   UNL     1      15.937  10.818   9.997  1.00  0.00    -0.038 N 
ATOM      9  HN1 UNL     1      15.032  10.907   9.536  1.00  0.00     0.281 HD
ATOM     10  HN2 UNL     1      16.241  11.786   9.897  1.00  0.00     0.281 HD
HETATM   11  O   UNL     1      16.730   9.378  11.573  1.00  0.00    -0.327 OA
HETATM   12  O   UNL     1      18.129   7.929  10.335  1.00  0.00    -0.349 OA
ENDROOT
BRANCH   5  13
HETATM   13  C   UNL     1      18.266   5.812   9.261  1.00  0.00     0.227 C 
BRANCH  13  14
HETATM   14  O   UNL     1      17.409   4.652   9.134  1.00  0.00    -0.254 OA
BRANCH  14  15
HETATM   15  S   UNL     1      18.073   3.277   8.745  1.00  0.00     0.251 S 
HETATM   16  O   UNL     1      17.050   2.299   9.033  1.00  0.00    -0.572 OA
HETATM   17  O   UNL     1      18.460   3.408   7.382  1.00  0.00    -0.572 OA
HETATM   18  O   UNL     1      19.234   3.125   9.596  1.00  0.00    -0.572 OA
ENDBRANCH  14  15
ENDBRANCH  13  14
ENDBRANCH   5  13
BRANCH   4  19
HETATM   19  O   UNL     1      15.909   6.641   7.699  1.00  0.00    -0.390 OA
ATOM     20  HO  UNL     1      15.045   6.802   8.058  1.00  0.00     0.210 HD
ENDBRANCH   4  19
BRANCH   3  21
HETATM   21  O   UNL     1      15.445   9.362   7.407  1.00  0.00    -0.391 OA
ATOM     22  HO  UNL     1      15.809  10.226   7.256  1.00  0.00     0.210 HD
ENDBRANCH   3  21
TORSDOF 5
ENDMDL
MODEL 15
REMARK VINA RESULT:    -5.760      3.492      5.957
REMARK INTER + INTRA:          -7.336
REMARK INTER:                  -6.973
REMARK INTRA:                  -0.363
REMARK UNBOUND:                -0.230
REMARK  5 active torsions:
REMARK  status: ('A' for Active; 'I' for Inactive)
REMARK    1  A    between atoms: S_3  and  O_22 
REMARK    2  A    between atoms: C_7  and  O_17 
REMARK    3  A    between atoms: C_8  and  O_19 
REMARK    4  A    between atoms: C_9  and  C_10 
REMARK    5  A    between atoms: C_10  and  O_22 
ROOT
HETATM    1  C   UNL     1      16.133   8.535  11.695  1.00  0.00     0.296 C 
HETATM    2  C   UNL     1      16.494   9.864  11.158  1.00  0.00     0.274 C 
HETATM    3  C   UNL     1      16.035  10.005   9.712  1.00  0.00     0.185 C 
HETATM    4  C   UNL     1      16.470   8.788   8.917  1.00  0.00     0.180 C 
HETATM    5  C   UNL     1      15.857   7.521   9.505  1.00  0.00     0.181 C 
HETATM    6  C   UNL     1      14.626  10.102  12.536  1.00  0.00     0.320 C 
HETATM    7  C   UNL     1      13.496  10.686  13.304  1.00  0.00     0.071 C 
HETATM    8  N   UNL     1      15.685  10.802  11.979  1.00  0.00    -0.038 N 
ATOM      9  HN1 UNL     1      15.378  11.619  11.451  1.00  0.00     0.281 HD
ATOM     10  HN2 UNL     1      16.242  11.289  12.681  1.00  0.00     0.281 HD
HETATM   11  O   UNL     1      14.794   8.725  12.262  1.00  0.00    -0.327 OA
HETATM   12  O   UNL     1      16.163   7.355  10.908  1.00  0.00    -0.349 OA
ENDROOT
BRANCH   5  13
HETATM   13  C   UNL     1      16.348   6.283   8.793  1.00  0.00     0.227 C 
BRANCH  13  14
HETATM   14  O   UNL     1      17.366   5.697   9.641  1.00  0.00    -0.254 OA
BRANCH  14  15
HETATM   15  S   UNL     1      18.781   5.409   9.013  1.00  0.00     0.251 S 
HETATM   16  O   UNL     1      18.651   4.086   8.448  1.00  0.00    -0.572 OA
HETATM   17  O   UNL     1      19.020   6.470   8.096  1.00  0.00    -0.572 OA
HETATM   18  O   UNL     1      19.731   5.449  10.104  1.00  0.00    -0.572 OA
ENDBRANCH  14  15
ENDBRANCH  13  14
ENDBRANCH   5  13
BRANCH   4  19
HETATM   19  O   UNL     1      15.959   8.947   7.596  1.00  0.00    -0.390 OA
ATOM     20  HO  UNL     1      15.766   9.870   7.481  1.00  0.00     0.210 HD
ENDBRANCH   4  19
BRANCH   3  21
HETATM   21  O   UNL     1      16.612  11.162   9.136  1.00  0.00    -0.391 OA
ATOM     22  HO  UNL     1      15.929  11.777   8.899  1.00  0.00     0.210 HD
ENDBRANCH   3  21
TORSDOF 5
ENDMDL
MODEL 16
REMARK VINA RESULT:    -5.540      3.963      6.370
REMARK INTER + INTRA:          -7.066
REMARK INTER:                  -6.366
REMARK INTRA:                  -0.700
REMARK UNBOUND:                -0.230
REMARK  5 active torsions:
REMARK  status: ('A' for Active; 'I' for Inactive)
REMARK    1  A    between atoms: S_3  and  O_22 
REMARK    2  A    between atoms: C_7  and  O_17 
REMARK    3  A    between atoms: C_8  and  O_19 
REMARK    4  A    between atoms: C_9  and  C_10 
REMARK    5  A    between atoms: C_10  and  O_22 
ROOT
HETATM    1  C   UNL     1      15.581   7.731   7.630  1.00  0.00     0.296 C 
HETATM    2  C   UNL     1      14.890   6.894   8.633  1.00  0.00     0.274 C 
HETATM    3  C   UNL     1      15.298   7.297  10.045  1.00  0.00     0.185 C 
HETATM    4  C   UNL     1      16.809   7.389  10.134  1.00  0.00     0.180 C 
HETATM    5  C   UNL     1      17.337   8.432   9.154  1.00  0.00     0.181 C 
HETATM    6  C   UNL     1      13.386   8.487   7.832  1.00  0.00     0.320 C 
HETATM    7  C   UNL     1      12.151   9.282   7.601  1.00  0.00     0.071 C 
HETATM    8  N   UNL     1      13.458   7.254   8.459  1.00  0.00    -0.038 N 
ATOM      9  HN1 UNL     1      12.940   7.231   9.337  1.00  0.00     0.281 HD
ATOM     10  HN2 UNL     1      12.931   6.533   7.966  1.00  0.00     0.281 HD
HETATM   11  O   UNL     1      14.686   8.876   7.435  1.00  0.00    -0.327 OA
HETATM   12  O   UNL     1      16.916   8.182   7.795  1.00  0.00    -0.349 OA
ENDROOT
BRANCH   5  13
HETATM   13  C   UNL     1      18.847   8.480   9.151  1.00  0.00     0.227 C 
BRANCH  13  14
HETATM   14  O   UNL     1      19.301   7.144   9.473  1.00  0.00    -0.254 OA
BRANCH  14  15
HETATM   15  S   UNL     1      20.607   6.991  10.340  1.00  0.00     0.251 S 
HETATM   16  O   UNL     1      21.623   7.664   9.565  1.00  0.00    -0.572 OA
HETATM   17  O   UNL     1      20.298   7.558  11.608  1.00  0.00    -0.572 OA
HETATM   18  O   UNL     1      20.859   5.571  10.460  1.00  0.00    -0.572 OA
ENDBRANCH  14  15
ENDBRANCH  13  14
ENDBRANCH   5  13
BRANCH   4  19
HETATM   19  O   UNL     1      17.125   7.830  11.452  1.00  0.00    -0.390 OA
ATOM     20  HO  UNL     1      17.453   8.718  11.378  1.00  0.00     0.210 HD
ENDBRANCH   4  19
BRANCH   3  21
HETATM   21  O   UNL     1      14.840   6.329  10.971  1.00  0.00    -0.391 OA
ATOM     22  HO  UNL     1      15.422   6.300  11.720  1.00  0.00     0.210 HD
ENDBRANCH   3  21
TORSDOF 5
ENDMDL
MODEL 17
REMARK VINA RESULT:    -5.510      3.354      5.346
REMARK INTER + INTRA:          -7.028
REMARK INTER:                  -6.821
REMARK INTRA:                  -0.206
REMARK UNBOUND:                -0.230
REMARK  5 active torsions:
REMARK  status: ('A' for Active; 'I' for Inactive)
REMARK    1  A    between atoms: S_3  and  O_22 
REMARK    2  A    between atoms: C_7  and  O_17 
REMARK    3  A    between atoms: C_8  and  O_19 
REMARK    4  A    between atoms: C_9  and  C_10 
REMARK    5  A    between atoms: C_10  and  O_22 
ROOT
HETATM    1  C   UNL     1      17.831   9.198   9.493  1.00  0.00     0.296 C 
HETATM    2  C   UNL     1      17.468   9.006  10.912  1.00  0.00     0.274 C 
HETATM    3  C   UNL     1      16.292   8.046  11.043  1.00  0.00     0.185 C 
HETATM    4  C   UNL     1      15.187   8.458  10.089  1.00  0.00     0.180 C 
HETATM    5  C   UNL     1      15.688   8.427   8.648  1.00  0.00     0.181 C 
HETATM    6  C   UNL     1      19.380   7.748  10.458  1.00  0.00     0.320 C 
HETATM    7  C   UNL     1      20.559   6.855  10.608  1.00  0.00     0.071 C 
HETATM    8  N   UNL     1      18.662   8.334  11.489  1.00  0.00    -0.038 N 
ATOM      9  HN1 UNL     1      18.420   7.668  12.223  1.00  0.00     0.281 HD
ATOM     10  HN2 UNL     1      19.232   8.964  12.053  1.00  0.00     0.281 HD
HETATM   11  O   UNL     1      18.814   8.144   9.225  1.00  0.00    -0.327 OA
HETATM   12  O   UNL     1      16.868   9.239   8.452  1.00  0.00    -0.349 OA
ENDROOT
BRANCH   5  13
HETATM   13  C   UNL     1      14.640   8.925   7.682  1.00  0.00     0.227 C 
BRANCH  13  14
HETATM   14  O   UNL     1      15.069   8.513   6.362  1.00  0.00    -0.254 OA
BRANCH  14  15
HETATM   15  S   UNL     1      14.057   8.680   5.166  1.00  0.00     0.251 S 
HETATM   16  O   UNL     1      12.868   9.217   5.785  1.00  0.00    -0.572 OA
HETATM   17  O   UNL     1      14.713   9.517   4.220  1.00  0.00    -0.572 OA
HETATM   18  O   UNL     1      13.843   7.358   4.620  1.00  0.00    -0.572 OA
ENDBRANCH  14  15
ENDBRANCH  13  14
ENDBRANCH   5  13
BRANCH   4  19
HETATM   19  O   UNL     1      14.147   7.492  10.209  1.00  0.00    -0.390 OA
ATOM     20  HO  UNL     1      14.172   7.165  11.101  1.00  0.00     0.210 HD
ENDBRANCH   4  19
BRANCH   3  21
HETATM   21  O   UNL     1      15.792   8.076  12.367  1.00  0.00    -0.391 OA
ATOM     22  HO  UNL     1      14.931   8.476  12.377  1.00  0.00     0.210 HD
ENDBRANCH   3  21
TORSDOF 5
ENDMDL
MODEL 18
REMARK VINA RESULT:    -5.449      5.016      6.470
REMARK INTER + INTRA:          -6.952
REMARK INTER:                  -6.224
REMARK INTRA:                  -0.728
REMARK UNBOUND:                -0.230
REMARK  5 active torsions:
REMARK  status: ('A' for Active; 'I' for Inactive)
REMARK    1  A    between atoms: S_3  and  O_22 
REMARK    2  A    between atoms: C_7  and  O_17 
REMARK    3  A    between atoms: C_8  and  O_19 
REMARK    4  A    between atoms: C_9  and  C_10 
REMARK    5  A    between atoms: C_10  and  O_22 
ROOT
HETATM    1  C   UNL     1      15.832   2.779   9.263  1.00  0.00     0.296 C 
HETATM    2  C   UNL     1      16.881   2.125   8.453  1.00  0.00     0.274 C 
HETATM    3  C   UNL     1      18.143   2.977   8.414  1.00  0.00     0.185 C 
HETATM    4  C   UNL     1      17.783   4.409   8.067  1.00  0.00     0.180 C 
HETATM    5  C   UNL     1      16.832   4.987   9.110  1.00  0.00     0.181 C 
HETATM    6  C   UNL     1      16.783   1.070  10.532  1.00  0.00     0.320 C 
HETATM    7  C   UNL     1      17.039   0.144  11.666  1.00  0.00     0.071 C 
HETATM    8  N   UNL     1      17.195   0.892   9.221  1.00  0.00    -0.038 N 
ATOM      9  HN1 UNL     1      18.178   0.629   9.153  1.00  0.00     0.281 HD
ATOM     10  HN2 UNL     1      16.796   0.054   8.797  1.00  0.00     0.281 HD
HETATM   11  O   UNL     1      16.065   2.285  10.624  1.00  0.00    -0.327 OA
HETATM   12  O   UNL     1      15.643   4.185   9.283  1.00  0.00    -0.349 OA
ENDROOT
BRANCH   5  13
HETATM   13  C   UNL     1      16.379   6.380   8.740  1.00  0.00     0.227 C 
BRANCH  13  14
HETATM   14  O   UNL     1      17.311   7.295   9.365  1.00  0.00    -0.254 OA
BRANCH  14  15
HETATM   15  S   UNL     1      17.783   8.552   8.542  1.00  0.00     0.251 S 
HETATM   16  O   UNL     1      18.946   8.085   7.824  1.00  0.00    -0.572 OA
HETATM   17  O   UNL     1      16.664   8.940   7.753  1.00  0.00    -0.572 OA
HETATM   18  O   UNL     1      18.110   9.578   9.508  1.00  0.00    -0.572 OA
ENDBRANCH  14  15
ENDBRANCH  13  14
ENDBRANCH   5  13
BRANCH   4  19
HETATM   19  O   UNL     1      18.989   5.166   8.109  1.00  0.00    -0.390 OA
ATOM     20  HO  UNL     1      19.376   5.124   7.243  1.00  0.00     0.210 HD
ENDBRANCH   4  19
BRANCH   3  21
HETATM   21  O   UNL     1      19.032   2.474   7.434  1.00  0.00    -0.391 OA
ATOM     22  HO  UNL     1      19.850   2.955   7.465  1.00  0.00     0.210 HD
ENDBRANCH   3  21
TORSDOF 5
ENDMDL
MODEL 19
REMARK VINA RESULT:    -5.435      6.984      8.641
REMARK INTER + INTRA:          -6.936
REMARK INTER:                  -6.223
REMARK INTRA:                  -0.713
REMARK UNBOUND:                -0.230
REMARK  5 active torsions:
REMARK  status: ('A' for Active; 'I' for Inactive)
REMARK    1  A    between atoms: S_3  and  O_22 
REMARK    2  A    between atoms: C_7  and  O_17 
REMARK    3  A    between atoms: C_8  and  O_19 
REMARK    4  A    between atoms: C_9  and  C_10 
REMARK    5  A    between atoms: C_10  and  O_22 
ROOT
HETATM    1  C   UNL     1      10.425  10.853  10.481  1.00  0.00     0.296 C 
HETATM    2  C   UNL     1      11.514  10.302   9.648  1.00  0.00     0.274 C 
HETATM    3  C   UNL     1      11.339  10.711   8.191  1.00  0.00     0.185 C 
HETATM    4  C   UNL     1       9.914  10.433   7.750  1.00  0.00     0.180 C 
HETATM    5  C   UNL     1       8.929  11.225   8.604  1.00  0.00     0.181 C 
HETATM    6  C   UNL     1      12.335  12.145  10.822  1.00  0.00     0.320 C 
HETATM    7  C   UNL     1      13.237  13.198  11.359  1.00  0.00     0.071 C 
HETATM    8  N   UNL     1      12.727  10.990  10.164  1.00  0.00    -0.038 N 
ATOM      9  HN1 UNL     1      13.414  11.171   9.433  1.00  0.00     0.281 HD
ATOM     10  HN2 UNL     1      13.302  10.383  10.749  1.00  0.00     0.281 HD
HETATM   11  O   UNL     1      10.924  12.163  10.911  1.00  0.00    -0.327 OA
HETATM   12  O   UNL     1       9.089  10.971  10.017  1.00  0.00    -0.349 OA
ENDROOT
BRANCH   5  13
HETATM   13  C   UNL     1       7.497  10.897   8.252  1.00  0.00     0.227 C 
BRANCH  13  14
HETATM   14  O   UNL     1       7.098  11.840   7.229  1.00  0.00    -0.254 OA
BRANCH  14  15
HETATM   15  S   UNL     1       6.417  11.277   5.925  1.00  0.00     0.251 S 
HETATM   16  O   UNL     1       6.365   9.850   6.143  1.00  0.00    -0.572 OA
HETATM   17  O   UNL     1       5.168  11.949   5.820  1.00  0.00    -0.572 OA
HETATM   18  O   UNL     1       7.284  11.633   4.821  1.00  0.00    -0.572 OA
ENDBRANCH  14  15
ENDBRANCH  13  14
ENDBRANCH   5  13
BRANCH   4  19
HETATM   19  O   UNL     1       9.795  10.893   6.407  1.00  0.00    -0.390 OA
ATOM     20  HO  UNL     1       8.943  11.306   6.328  1.00  0.00     0.210 HD
ENDBRANCH   4  19
BRANCH   3  21
HETATM   21  O   UNL     1      12.227   9.970   7.375  1.00  0.00    -0.391 OA
ATOM     22  HO  UNL     1      11.842   9.129   7.161  1.00  0.00     0.210 HD
ENDBRANCH   3  21
TORSDOF 5
ENDMDL
MODEL 20
REMARK VINA RESULT:    -5.406      5.183      6.470
REMARK INTER + INTRA:          -6.900
REMARK INTER:                  -6.380
REMARK INTRA:                  -0.521
REMARK UNBOUND:                -0.230
REMARK  5 active torsions:
REMARK  status: ('A' for Active; 'I' for Inactive)
REMARK    1  A    between atoms: S_3  and  O_22 
REMARK    2  A    between atoms: C_7  and  O_17 
REMARK    3  A    between atoms: C_8  and  O_19 
REMARK    4  A    between atoms: C_9  and  C_10 
REMARK    5  A    between atoms: C_10  and  O_22 
ROOT
HETATM    1  C   UNL     1      11.496   9.230   7.569  1.00  0.00     0.296 C 
HETATM    2  C   UNL     1      10.555  10.269   7.104  1.00  0.00     0.274 C 
HETATM    3  C   UNL     1      10.775  11.575   7.858  1.00  0.00     0.185 C 
HETATM    4  C   UNL     1      10.832  11.300   9.349  1.00  0.00     0.180 C 
HETATM    5  C   UNL     1      11.978  10.347   9.672  1.00  0.00     0.181 C 
HETATM    6  C   UNL     1      12.258  10.050   5.525  1.00  0.00     0.320 C 
HETATM    7  C   UNL     1      13.095  10.221   4.308  1.00  0.00     0.071 C 
HETATM    8  N   UNL     1      10.956  10.495   5.690  1.00  0.00    -0.038 N 
ATOM      9  HN1 UNL     1      10.835  11.464   5.399  1.00  0.00     0.281 HD
ATOM     10  HN2 UNL     1      10.311  10.067   5.027  1.00  0.00     0.281 HD
HETATM   11  O   UNL     1      12.671   9.393   6.707  1.00  0.00    -0.327 OA
HETATM   12  O   UNL     1      11.902   9.113   8.924  1.00  0.00    -0.349 OA
ENDROOT
BRANCH   5  13
HETATM   13  C   UNL     1      12.001   9.978  11.136  1.00  0.00     0.227 C 
BRANCH  13  14
HETATM   14  O   UNL     1      13.367  10.155  11.584  1.00  0.00    -0.254 OA
BRANCH  14  15
HETATM   15  S   UNL     1      13.641  11.181  12.747  1.00  0.00     0.251 S 
HETATM   16  O   UNL     1      15.082  11.251  12.821  1.00  0.00    -0.572 OA
HETATM   17  O   UNL     1      12.966  12.377  12.375  1.00  0.00    -0.572 OA
HETATM   18  O   UNL     1      13.056  10.613  13.943  1.00  0.00    -0.572 OA
ENDBRANCH  14  15
ENDBRANCH  13  14
ENDBRANCH   5  13
BRANCH   4  19
HETATM   19  O   UNL     1      11.102  12.541   9.993  1.00  0.00    -0.390 OA
ATOM     20  HO  UNL     1      11.895  12.891   9.603  1.00  0.00     0.210 HD
ENDBRANCH   4  19
BRANCH   3  21
HETATM   21  O   UNL     1       9.709  12.468   7.594  1.00  0.00    -0.391 OA
ATOM     22  HO  UNL     1       8.889  12.082   7.876  1.00  0.00     0.210 HD
ENDBRANCH   3  21
TORSDOF 5
ENDMDL
