REMARK  7 active torsions:
REMARK  status: ('A' for Active; 'I' for Inactive)
REMARK    1  A    between atoms: N_6  and  C_7 
REMARK    2  A    between atoms: C_7  and  C_8 
REMARK    3  A    between atoms: C_8  and  O_9 
REMARK    4  A    between atoms: O_9  and  C_10 
REMARK    5  A    between atoms: C_15  and  C_16 
REMARK    6  A    between atoms: C_20  and  O_21 
REMARK    7  A    between atoms: C_27  and  C_28 
ROOT
HETATM    1  C   UNL     1      -4.784 -15.029 -61.556  1.00  0.00     0.060 C 
HETATM    2  C   UNL     1      -4.802 -13.597 -61.594  1.00  0.00    -0.043 A 
HETATM    3  C   UNL     1      -4.878 -12.992 -62.987  1.00  0.00     0.011 A 
HETATM    4  C   UNL     1      -4.891 -11.612 -63.062  1.00  0.00     0.037 A 
HETATM    5  C   UNL     1      -4.827 -10.739 -61.807  1.00  0.00     0.066 A 
HETATM    6  C   UNL     1      -4.783 -11.282 -60.541  1.00  0.00     0.044 A 
HETATM    7  C   UNL     1      -4.743 -12.795 -60.527  1.00  0.00    -0.048 A 
HETATM    8  C   UNL     1      -4.660 -13.162 -59.020  1.00  0.00     0.040 C 
HETATM    9  C   UNL     1      -4.119 -14.615 -59.085  1.00  0.00     0.015 C 
HETATM   10  C   UNL     1      -4.902 -15.450 -60.127  1.00  0.00     0.032 C 
ENDROOT
BRANCH   1  11
HETATM   11  C   UNL     1      -3.468 -15.447 -62.193  1.00  0.00    -0.049 A 
HETATM   12  C   UNL     1      -3.477 -16.438 -63.145  1.00  0.00     0.011 A 
HETATM   13  C   UNL     1      -2.201 -16.905 -63.843  1.00  0.00     0.037 A 
HETATM   14  C   UNL     1      -1.029 -16.293 -63.507  1.00  0.00     0.068 A 
HETATM   15  C   UNL     1      -1.000 -15.187 -62.458  1.00  0.00     0.037 A 
HETATM   16  C   UNL     1      -2.160 -14.768 -61.839  1.00  0.00     0.011 A 
BRANCH  14  17
HETATM   17  O   UNL     1       0.176 -16.724 -64.142  1.00  0.00    -0.349 OA
BRANCH  17  18
HETATM   18  C   UNL     1       0.157 -16.879 -65.561  1.00  0.00     0.206 C 
BRANCH  18  19
HETATM   19  C   UNL     1       1.603 -17.166 -66.004  1.00  0.00     0.299 C 
BRANCH  19  20
HETATM   20  N   UNL     1       2.221 -15.977 -66.404  1.00  0.00     0.090 N 
HETATM   21  C   UNL     1       3.510 -16.191 -67.068  1.00  0.00     0.273 C 
HETATM   22  C   UNL     1       4.247 -14.855 -66.839  1.00  0.00     0.036 C 
HETATM   23  C   UNL     1       3.394 -14.120 -65.909  1.00  0.00     0.011 C 
HETATM   24  C   UNL     1       4.226 -13.385 -64.819  1.00  0.00     0.011 C 
HETATM   25  C   UNL     1       2.514 -15.137 -65.262  1.00  0.00     0.276 C 
ENDBRANCH  19  20
ENDBRANCH  18  19
ENDBRANCH  17  18
ENDBRANCH  14  17
ENDBRANCH   1  11
BRANCH  10  26
HETATM   26  C   UNL     1      -4.542 -16.941 -59.997  1.00  0.00    -0.053 A 
HETATM   27  C   UNL     1      -5.549 -17.888 -60.177  1.00  0.00     0.007 A 
HETATM   28  C   UNL     1      -5.245 -19.241 -60.060  1.00  0.00     0.001 A 
HETATM   29  C   UNL     1      -3.952 -19.636 -59.766  1.00  0.00     0.000 A 
HETATM   30  C   UNL     1      -2.947 -18.690 -59.580  1.00  0.00     0.001 A 
HETATM   31  C   UNL     1      -3.253 -17.338 -59.694  1.00  0.00     0.007 A 
ENDBRANCH  10  26
BRANCH   5  32
HETATM   32  O   UNL     1      -4.807  -9.350 -61.937  1.00  0.00    -0.361 OA
ATOM     33  HO  UNL     1      -4.767  -8.808 -61.158  1.00  0.00     0.217 HD
ENDBRANCH   5  32
TORSDOF 7
