REMARK  3 active torsions:
REMARK  status: ('A' for Active; 'I' for Inactive)
REMARK    1  A    between atoms: C_1  and  O_3 
REMARK    2  A    between atoms: C_1  and  C_4 
REMARK    3  A    between atoms: C_7  and  O_10 
ROOT
HETATM    1  C   UNL     1      -0.312  -0.225  -0.269  1.00  0.00     0.037 A 
HETATM    2  C   UNL     1       0.027   0.089   1.061  1.00  0.00     0.021 A 
HETATM    3  C   UNL     1       1.046   1.008   1.333  1.00  0.00     0.037 A 
HETATM    4  C   UNL     1       1.738   1.624   0.283  1.00  0.00     0.065 A 
HETATM    5  C   UNL     1       1.406   1.317  -1.040  1.00  0.00     0.037 A 
HETATM    6  C   UNL     1       0.388   0.399  -1.316  1.00  0.00     0.021 A 
ENDROOT
BRANCH   1   7
HETATM    7  C   UNL     1      -1.389  -1.196  -0.564  1.00  0.00     0.176 C 
HETATM    8  O   UNL     1      -2.018  -1.757   0.374  1.00  0.00    -0.646 OA
BRANCH   7   9
HETATM    9  O   UNL     1      -1.718  -1.500  -1.882  1.00  0.00    -0.773 OA
HETATM   10  H   UNL     1      -2.453  -2.163  -2.095  1.00  0.00     0.167 HD
ENDBRANCH   7   9
ENDBRANCH   1   7
BRANCH   4  11
HETATM   11  O   UNL     1       2.754   2.541   0.543  1.00  0.00    -0.361 OA
HETATM   12  H   UNL     1       3.018   2.784   1.490  1.00  0.00     0.217 HD
ENDBRANCH   4  11
TORSDOF 3
