MODEL 1
REMARK VINA RESULT:    -7.024      0.000      0.000
REMARK INTER + INTRA:         -10.384
REMARK INTER:                  -9.282
REMARK INTRA:                  -1.102
REMARK UNBOUND:                -1.102
REMARK  7 active torsions:
REMARK  status: ('A' for Active; 'I' for Inactive)
REMARK    1  A    between atoms: C_1  and  O_11 
REMARK    2  A    between atoms: C_2  and  N_9 
REMARK    3  A    between atoms: C_3  and  O_13 
REMARK    4  A    between atoms: C_4  and  O_15 
REMARK    5  A    between atoms: C_5  and  C_6 
REMARK    6  A    between atoms: C_6  and  O_17 
REMARK       I    between atoms: C_7  and  N_9 
REMARK    7  A    between atoms: O_15  and  S_20 
ROOT
HETATM    1  C   UNL     1      34.741  37.751  30.737  1.00  0.00     0.282 C 
HETATM    2  C   UNL     1      34.211  37.768  32.175  1.00  0.00     0.170 C 
HETATM    3  C   UNL     1      33.594  39.123  32.524  1.00  0.00     0.178 C 
HETATM    4  C   UNL     1      34.563  40.255  32.192  1.00  0.00     0.207 C 
HETATM    5  C   UNL     1      35.007  40.138  30.737  1.00  0.00     0.181 C 
HETATM    6  O   UNL     1      35.615  38.849  30.498  1.00  0.00    -0.349 OA
ENDROOT
BRANCH   2   7
HETATM    7  N   UNL     1      33.281  36.677  32.399  1.00  0.00    -0.349 N 
HETATM    8  C   UNL     1      33.572  35.629  33.175  1.00  0.00     0.214 C 
HETATM    9  C   UNL     1      32.559  34.523  33.184  1.00  0.00     0.117 C 
HETATM   10  O   UNL     1      34.613  35.570  33.829  1.00  0.00    -0.274 OA
ATOM     11  HN  UNL     1      32.368  36.712  31.946  1.00  0.00     0.163 HD
ENDBRANCH   2   7
BRANCH   3  12
HETATM   12  O   UNL     1      33.260  39.203  33.902  1.00  0.00    -0.391 OA
ATOM     13  HO  UNL     1      32.973  40.089  34.093  1.00  0.00     0.210 HD
ENDBRANCH   3  12
BRANCH   1  14
HETATM   14  O   UNL     1      33.667  37.779  29.838  1.00  0.00    -0.369 OA
ATOM     15  HO  UNL     1      33.981  37.693  28.946  1.00  0.00     0.212 HD
ENDBRANCH   1  14
BRANCH   4  16
HETATM   16  O   UNL     1      35.725  40.152  33.105  1.00  0.00    -0.246 OA
BRANCH  16  17
HETATM   17  S   UNL     1      36.030  41.347  34.123  1.00  0.00     0.252 S 
HETATM   18  O   UNL     1      36.586  42.412  33.318  1.00  0.00    -0.572 OA
HETATM   19  O   UNL     1      34.747  41.673  34.685  1.00  0.00    -0.572 OA
HETATM   20  O   UNL     1      36.966  40.846  35.082  1.00  0.00    -0.572 OA
ENDBRANCH  16  17
ENDBRANCH   4  16
BRANCH   5  21
HETATM   21  C   UNL     1      36.026  41.185  30.354  1.00  0.00     0.199 C 
BRANCH  21  22
HETATM   22  O   UNL     1      37.328  40.815  30.803  1.00  0.00    -0.398 OA
ATOM     23  HO  UNL     1      37.358  39.892  31.030  1.00  0.00     0.209 HD
ENDBRANCH  21  22
ENDBRANCH   5  21
TORSDOF 7
ENDMDL
MODEL 2
REMARK VINA RESULT:    -5.086      2.769      5.573
REMARK INTER + INTRA:          -7.823
REMARK INTER:                  -6.676
REMARK INTRA:                  -1.147
REMARK UNBOUND:                -1.102
REMARK  7 active torsions:
REMARK  status: ('A' for Active; 'I' for Inactive)
REMARK    1  A    between atoms: C_1  and  O_11 
REMARK    2  A    between atoms: C_2  and  N_9 
REMARK    3  A    between atoms: C_3  and  O_13 
REMARK    4  A    between atoms: C_4  and  O_15 
REMARK    5  A    between atoms: C_5  and  C_6 
REMARK    6  A    between atoms: C_6  and  O_17 
REMARK       I    between atoms: C_7  and  N_9 
REMARK    7  A    between atoms: O_15  and  S_20 
ROOT
HETATM    1  C   UNL     1      33.714  38.518  30.031  1.00  0.00     0.282 C 
HETATM    2  C   UNL     1      34.451  38.375  31.368  1.00  0.00     0.170 C 
HETATM    3  C   UNL     1      35.247  37.071  31.427  1.00  0.00     0.178 C 
HETATM    4  C   UNL     1      34.361  35.883  31.061  1.00  0.00     0.207 C 
HETATM    5  C   UNL     1      33.697  36.137  29.712  1.00  0.00     0.181 C 
HETATM    6  O   UNL     1      32.932  37.363  29.748  1.00  0.00    -0.349 OA
ENDROOT
BRANCH   2   7
HETATM    7  N   UNL     1      35.287  39.532  31.627  1.00  0.00    -0.349 N 
HETATM    8  C   UNL     1      35.086  40.350  32.665  1.00  0.00     0.214 C 
HETATM    9  C   UNL     1      35.948  41.577  32.705  1.00  0.00     0.117 C 
HETATM   10  O   UNL     1      34.236  40.117  33.525  1.00  0.00    -0.274 OA
ATOM     11  HN  UNL     1      36.059  39.729  30.991  1.00  0.00     0.163 HD
ENDBRANCH   2   7
BRANCH   3  12
HETATM   12  O   UNL     1      35.788  36.851  32.721  1.00  0.00    -0.391 OA
ATOM     13  HO  UNL     1      35.085  36.589  33.304  1.00  0.00     0.210 HD
ENDBRANCH   3  12
BRANCH   1  14
HETATM   14  O   UNL     1      34.641  38.741  29.005  1.00  0.00    -0.369 OA
ATOM     15  HO  UNL     1      34.255  39.276  28.322  1.00  0.00     0.212 HD
ENDBRANCH   1  14
BRANCH   4  16
HETATM   16  O   UNL     1      33.343  35.722  32.124  1.00  0.00    -0.246 OA
BRANCH  16  17
HETATM   17  S   UNL     1      33.465  34.498  33.147  1.00  0.00     0.252 S 
HETATM   18  O   UNL     1      34.028  35.057  34.357  1.00  0.00    -0.572 OA
HETATM   19  O   UNL     1      32.114  34.034  33.313  1.00  0.00    -0.572 OA
HETATM   20  O   UNL     1      34.332  33.536  32.540  1.00  0.00    -0.572 OA
ENDBRANCH  16  17
ENDBRANCH   4  16
BRANCH   5  21
HETATM   21  C   UNL     1      32.745  35.034  29.315  1.00  0.00     0.199 C 
BRANCH  21  22
HETATM   22  O   UNL     1      33.216  33.768  29.774  1.00  0.00    -0.398 OA
ATOM     23  HO  UNL     1      34.105  33.610  29.478  1.00  0.00     0.209 HD
ENDBRANCH  21  22
ENDBRANCH   5  21
TORSDOF 7
ENDMDL
MODEL 3
REMARK VINA RESULT:    -4.997      9.497     10.931
REMARK INTER + INTRA:          -7.705
REMARK INTER:                  -6.545
REMARK INTRA:                  -1.160
REMARK UNBOUND:                -1.102
REMARK  7 active torsions:
REMARK  status: ('A' for Active; 'I' for Inactive)
REMARK    1  A    between atoms: C_1  and  O_11 
REMARK    2  A    between atoms: C_2  and  N_9 
REMARK    3  A    between atoms: C_3  and  O_13 
REMARK    4  A    between atoms: C_4  and  O_15 
REMARK    5  A    between atoms: C_5  and  C_6 
REMARK    6  A    between atoms: C_6  and  O_17 
REMARK       I    between atoms: C_7  and  N_9 
REMARK    7  A    between atoms: O_15  and  S_20 
ROOT
HETATM    1  C   UNL     1      28.971  41.077  26.766  1.00  0.00     0.282 C 
HETATM    2  C   UNL     1      27.595  40.729  27.345  1.00  0.00     0.170 C 
HETATM    3  C   UNL     1      26.662  40.176  26.267  1.00  0.00     0.178 C 
HETATM    4  C   UNL     1      26.624  41.111  25.060  1.00  0.00     0.207 C 
HETATM    5  C   UNL     1      28.045  41.370  24.569  1.00  0.00     0.181 C 
HETATM    6  O   UNL     1      28.851  41.927  25.631  1.00  0.00    -0.349 OA
ENDROOT
BRANCH   2   7
HETATM    7  N   UNL     1      27.719  39.820  28.469  1.00  0.00    -0.349 N 
HETATM    8  C   UNL     1      27.803  40.245  29.734  1.00  0.00     0.214 C 
HETATM    9  C   UNL     1      28.072  39.186  30.762  1.00  0.00     0.117 C 
HETATM   10  O   UNL     1      27.682  41.433  30.033  1.00  0.00    -0.274 OA
ATOM     11  HN  UNL     1      27.743  38.817  28.288  1.00  0.00     0.163 HD
ENDBRANCH   2   7
BRANCH   3  12
HETATM   12  O   UNL     1      25.338  40.016  26.757  1.00  0.00    -0.391 OA
ATOM     13  HO  UNL     1      25.277  40.434  27.608  1.00  0.00     0.210 HD
ENDBRANCH   3  12
BRANCH   1  14
HETATM   14  O   UNL     1      29.649  39.900  26.423  1.00  0.00    -0.369 OA
ATOM     15  HO  UNL     1      29.057  39.158  26.452  1.00  0.00     0.212 HD
ENDBRANCH   1  14
BRANCH   4  16
HETATM   16  O   UNL     1      25.973  42.375  25.474  1.00  0.00    -0.246 OA
BRANCH  16  17
HETATM   17  S   UNL     1      24.572  42.785  24.822  1.00  0.00     0.252 S 
HETATM   18  O   UNL     1      24.889  43.749  23.791  1.00  0.00    -0.572 OA
HETATM   19  O   UNL     1      24.046  41.552  24.302  1.00  0.00    -0.572 OA
HETATM   20  O   UNL     1      23.777  43.351  25.868  1.00  0.00    -0.572 OA
ENDBRANCH  16  17
ENDBRANCH   4  16
BRANCH   5  21
HETATM   21  C   UNL     1      28.093  42.346  23.418  1.00  0.00     0.199 C 
BRANCH  21  22
HETATM   22  O   UNL     1      28.002  43.689  23.887  1.00  0.00    -0.398 OA
ATOM     23  HO  UNL     1      27.329  44.167  23.417  1.00  0.00     0.209 HD
ENDBRANCH  21  22
ENDBRANCH   5  21
TORSDOF 7
ENDMDL
MODEL 4
REMARK VINA RESULT:    -4.988      3.003      5.261
REMARK INTER + INTRA:          -7.693
REMARK INTER:                  -6.528
REMARK INTRA:                  -1.165
REMARK UNBOUND:                -1.102
REMARK  7 active torsions:
REMARK  status: ('A' for Active; 'I' for Inactive)
REMARK    1  A    between atoms: C_1  and  O_11 
REMARK    2  A    between atoms: C_2  and  N_9 
REMARK    3  A    between atoms: C_3  and  O_13 
REMARK    4  A    between atoms: C_4  and  O_15 
REMARK    5  A    between atoms: C_5  and  C_6 
REMARK    6  A    between atoms: C_6  and  O_17 
REMARK       I    between atoms: C_7  and  N_9 
REMARK    7  A    between atoms: O_15  and  S_20 
ROOT
HETATM    1  C   UNL     1      35.467  40.238  30.101  1.00  0.00     0.282 C 
HETATM    2  C   UNL     1      34.843  39.542  31.316  1.00  0.00     0.170 C 
HETATM    3  C   UNL     1      35.274  38.077  31.399  1.00  0.00     0.178 C 
HETATM    4  C   UNL     1      35.032  37.369  30.068  1.00  0.00     0.207 C 
HETATM    5  C   UNL     1      35.710  38.147  28.945  1.00  0.00     0.181 C 
HETATM    6  O   UNL     1      35.220  39.506  28.906  1.00  0.00    -0.349 OA
ENDROOT
BRANCH   2   7
HETATM    7  N   UNL     1      35.140  40.263  32.539  1.00  0.00    -0.349 N 
HETATM    8  C   UNL     1      34.255  40.397  33.532  1.00  0.00     0.214 C 
HETATM    9  C   UNL     1      34.671  41.293  34.660  1.00  0.00     0.117 C 
HETATM   10  O   UNL     1      33.162  39.831  33.512  1.00  0.00    -0.274 OA
ATOM     11  HN  UNL     1      36.062  40.686  32.645  1.00  0.00     0.163 HD
ENDBRANCH   2   7
BRANCH   3  12
HETATM   12  O   UNL     1      34.567  37.383  32.416  1.00  0.00    -0.391 OA
ATOM     13  HO  UNL     1      35.197  36.966  32.994  1.00  0.00     0.210 HD
ENDBRANCH   3  12
BRANCH   1  14
HETATM   14  O   UNL     1      36.844  40.392  30.303  1.00  0.00    -0.369 OA
ATOM     15  HO  UNL     1      37.176  39.697  30.859  1.00  0.00     0.212 HD
ENDBRANCH   1  14
BRANCH   4  16
HETATM   16  O   UNL     1      33.570  37.293  29.846  1.00  0.00    -0.246 OA
BRANCH  16  17
HETATM   17  S   UNL     1      32.804  35.918  30.134  1.00  0.00     0.252 S 
HETATM   18  O   UNL     1      32.079  35.614  28.921  1.00  0.00    -0.572 OA
HETATM   19  O   UNL     1      33.855  34.978  30.418  1.00  0.00    -0.572 OA
HETATM   20  O   UNL     1      31.932  36.154  31.243  1.00  0.00    -0.572 OA
ENDBRANCH  16  17
ENDBRANCH   4  16
BRANCH   5  21
HETATM   21  C   UNL     1      35.452  37.545  27.584  1.00  0.00     0.199 C 
BRANCH  21  22
HETATM   22  O   UNL     1      34.995  36.199  27.702  1.00  0.00    -0.398 OA
ATOM     23  HO  UNL     1      35.486  35.733  28.369  1.00  0.00     0.209 HD
ENDBRANCH  21  22
ENDBRANCH   5  21
TORSDOF 7
ENDMDL
MODEL 5
REMARK VINA RESULT:    -4.714      3.213      6.099
REMARK INTER + INTRA:          -7.331
REMARK INTER:                  -6.237
REMARK INTRA:                  -1.094
REMARK UNBOUND:                -1.102
REMARK  7 active torsions:
REMARK  status: ('A' for Active; 'I' for Inactive)
REMARK    1  A    between atoms: C_1  and  O_11 
REMARK    2  A    between atoms: C_2  and  N_9 
REMARK    3  A    between atoms: C_3  and  O_13 
REMARK    4  A    between atoms: C_4  and  O_15 
REMARK    5  A    between atoms: C_5  and  C_6 
REMARK    6  A    between atoms: C_6  and  O_17 
REMARK       I    between atoms: C_7  and  N_9 
REMARK    7  A    between atoms: O_15  and  S_20 
ROOT
HETATM    1  C   UNL     1      35.418  36.603  31.257  1.00  0.00     0.282 C 
HETATM    2  C   UNL     1      34.528  37.851  31.272  1.00  0.00     0.170 C 
HETATM    3  C   UNL     1      33.412  37.725  32.310  1.00  0.00     0.178 C 
HETATM    4  C   UNL     1      32.658  36.409  32.131  1.00  0.00     0.207 C 
HETATM    5  C   UNL     1      33.646  35.247  32.146  1.00  0.00     0.181 C 
HETATM    6  O   UNL     1      34.642  35.419  31.113  1.00  0.00    -0.349 OA
ENDROOT
BRANCH   2   7
HETATM    7  N   UNL     1      35.317  39.051  31.471  1.00  0.00    -0.349 N 
HETATM    8  C   UNL     1      35.530  39.944  30.499  1.00  0.00     0.214 C 
HETATM    9  C   UNL     1      36.486  41.052  30.829  1.00  0.00     0.117 C 
HETATM   10  O   UNL     1      34.986  39.853  29.398  1.00  0.00    -0.274 OA
ATOM     11  HN  UNL     1      35.727  39.221  32.389  1.00  0.00     0.163 HD
ENDBRANCH   2   7
BRANCH   3  12
HETATM   12  O   UNL     1      32.484  38.795  32.210  1.00  0.00    -0.391 OA
ATOM     13  HO  UNL     1      32.584  39.356  32.971  1.00  0.00     0.210 HD
ENDBRANCH   3  12
BRANCH   1  14
HETATM   14  O   UNL     1      36.174  36.550  32.435  1.00  0.00    -0.369 OA
ATOM     15  HO  UNL     1      36.718  35.771  32.443  1.00  0.00     0.212 HD
ENDBRANCH   1  14
BRANCH   4  16
HETATM   16  O   UNL     1      31.933  36.464  30.841  1.00  0.00    -0.246 OA
BRANCH  16  17
HETATM   17  S   UNL     1      30.342  36.625  30.843  1.00  0.00     0.252 S 
HETATM   18  O   UNL     1      29.896  36.103  29.570  1.00  0.00    -0.572 OA
HETATM   19  O   UNL     1      29.905  35.835  31.963  1.00  0.00    -0.572 OA
HETATM   20  O   UNL     1      30.066  38.022  30.984  1.00  0.00    -0.572 OA
ENDBRANCH  16  17
ENDBRANCH   4  16
BRANCH   5  21
HETATM   21  C   UNL     1      32.980  33.914  31.901  1.00  0.00     0.199 C 
BRANCH  21  22
HETATM   22  O   UNL     1      31.764  33.811  32.639  1.00  0.00    -0.398 OA
ATOM     23  HO  UNL     1      31.940  33.697  33.566  1.00  0.00     0.209 HD
ENDBRANCH  21  22
ENDBRANCH   5  21
TORSDOF 7
ENDMDL
MODEL 6
REMARK VINA RESULT:    -4.709      5.125      7.018
REMARK INTER + INTRA:          -7.325
REMARK INTER:                  -6.188
REMARK INTRA:                  -1.138
REMARK UNBOUND:                -1.102
REMARK  7 active torsions:
REMARK  status: ('A' for Active; 'I' for Inactive)
REMARK    1  A    between atoms: C_1  and  O_11 
REMARK    2  A    between atoms: C_2  and  N_9 
REMARK    3  A    between atoms: C_3  and  O_13 
REMARK    4  A    between atoms: C_4  and  O_15 
REMARK    5  A    between atoms: C_5  and  C_6 
REMARK    6  A    between atoms: C_6  and  O_17 
REMARK       I    between atoms: C_7  and  N_9 
REMARK    7  A    between atoms: O_15  and  S_20 
ROOT
HETATM    1  C   UNL     1      37.167  31.591  31.327  1.00  0.00     0.282 C 
HETATM    2  C   UNL     1      36.044  31.138  32.266  1.00  0.00     0.170 C 
HETATM    3  C   UNL     1      34.678  31.610  31.769  1.00  0.00     0.178 C 
HETATM    4  C   UNL     1      34.700  33.110  31.484  1.00  0.00     0.207 C 
HETATM    5  C   UNL     1      35.846  33.434  30.532  1.00  0.00     0.181 C 
HETATM    6  O   UNL     1      37.105  32.993  31.090  1.00  0.00    -0.349 OA
ENDROOT
BRANCH   2   7
HETATM    7  N   UNL     1      36.080  29.701  32.463  1.00  0.00    -0.349 N 
HETATM    8  C   UNL     1      35.901  29.131  33.660  1.00  0.00     0.214 C 
HETATM    9  C   UNL     1      36.113  27.648  33.714  1.00  0.00     0.117 C 
HETATM   10  O   UNL     1      35.597  29.788  34.656  1.00  0.00    -0.274 OA
ATOM     11  HN  UNL     1      36.249  29.100  31.657  1.00  0.00     0.163 HD
ENDBRANCH   2   7
BRANCH   3  12
HETATM   12  O   UNL     1      33.657  31.345  32.720  1.00  0.00    -0.391 OA
ATOM     13  HO  UNL     1      34.007  31.497  33.590  1.00  0.00     0.210 HD
ENDBRANCH   3  12
BRANCH   1  14
HETATM   14  O   UNL     1      37.082  30.890  30.118  1.00  0.00    -0.369 OA
ATOM     15  HO  UNL     1      37.570  30.077  30.172  1.00  0.00     0.212 HD
ENDBRANCH   1  14
BRANCH   4  16
HETATM   16  O   UNL     1      34.871  33.822  32.772  1.00  0.00    -0.246 OA
BRANCH  16  17
HETATM   17  S   UNL     1      33.715  34.803  33.284  1.00  0.00     0.252 S 
HETATM   18  O   UNL     1      32.502  34.016  33.271  1.00  0.00    -0.572 OA
HETATM   19  O   UNL     1      34.131  35.182  34.608  1.00  0.00    -0.572 OA
HETATM   20  O   UNL     1      33.662  35.897  32.364  1.00  0.00    -0.572 OA
ENDBRANCH  16  17
ENDBRANCH   4  16
BRANCH   5  21
HETATM   21  C   UNL     1      35.977  34.913  30.260  1.00  0.00     0.199 C 
BRANCH  21  22
HETATM   22  O   UNL     1      36.539  35.588  31.383  1.00  0.00    -0.398 OA
ATOM     23  HO  UNL     1      36.420  36.528  31.308  1.00  0.00     0.209 HD
ENDBRANCH  21  22
ENDBRANCH   5  21
TORSDOF 7
ENDMDL
MODEL 7
REMARK VINA RESULT:    -4.702      2.820      5.028
REMARK INTER + INTRA:          -7.316
REMARK INTER:                  -6.539
REMARK INTRA:                  -0.777
REMARK UNBOUND:                -1.102
REMARK  7 active torsions:
REMARK  status: ('A' for Active; 'I' for Inactive)
REMARK    1  A    between atoms: C_1  and  O_11 
REMARK    2  A    between atoms: C_2  and  N_9 
REMARK    3  A    between atoms: C_3  and  O_13 
REMARK    4  A    between atoms: C_4  and  O_15 
REMARK    5  A    between atoms: C_5  and  C_6 
REMARK    6  A    between atoms: C_6  and  O_17 
REMARK       I    between atoms: C_7  and  N_9 
REMARK    7  A    between atoms: O_15  and  S_20 
ROOT
HETATM    1  C   UNL     1      35.688  38.898  30.188  1.00  0.00     0.282 C 
HETATM    2  C   UNL     1      35.643  37.387  29.932  1.00  0.00     0.170 C 
HETATM    3  C   UNL     1      34.253  36.817  30.212  1.00  0.00     0.178 C 
HETATM    4  C   UNL     1      33.769  37.239  31.597  1.00  0.00     0.207 C 
HETATM    5  C   UNL     1      33.848  38.757  31.726  1.00  0.00     0.181 C 
HETATM    6  O   UNL     1      35.198  39.214  31.487  1.00  0.00    -0.349 OA
ENDROOT
BRANCH   2   7
HETATM    7  N   UNL     1      36.095  37.075  28.589  1.00  0.00    -0.349 N 
HETATM    8  C   UNL     1      36.927  36.062  28.324  1.00  0.00     0.214 C 
HETATM    9  C   UNL     1      37.408  35.966  26.907  1.00  0.00     0.117 C 
HETATM   10  O   UNL     1      37.286  35.268  29.194  1.00  0.00    -0.274 OA
ATOM     11  HN  UNL     1      35.764  37.650  27.815  1.00  0.00     0.163 HD
ENDBRANCH   2   7
BRANCH   3  12
HETATM   12  O   UNL     1      34.249  35.398  30.145  1.00  0.00    -0.391 OA
ATOM     13  HO  UNL     1      35.062  35.111  29.745  1.00  0.00     0.210 HD
ENDBRANCH   3  12
BRANCH   1  14
HETATM   14  O   UNL     1      34.939  39.564  29.210  1.00  0.00    -0.369 OA
ATOM     15  HO  UNL     1      34.519  40.330  29.582  1.00  0.00     0.212 HD
ENDBRANCH   1  14
BRANCH   4  16
HETATM   16  O   UNL     1      34.629  36.582  32.608  1.00  0.00    -0.246 OA
BRANCH  16  17
HETATM   17  S   UNL     1      34.163  35.192  33.249  1.00  0.00     0.252 S 
HETATM   18  O   UNL     1      32.796  35.003  32.816  1.00  0.00    -0.572 OA
HETATM   19  O   UNL     1      35.071  34.223  32.698  1.00  0.00    -0.572 OA
HETATM   20  O   UNL     1      34.268  35.335  34.668  1.00  0.00    -0.572 OA
ENDBRANCH  16  17
ENDBRANCH   4  16
BRANCH   5  21
HETATM   21  C   UNL     1      33.452  39.246  33.099  1.00  0.00     0.199 C 
BRANCH  21  22
HETATM   22  O   UNL     1      34.408  40.177  33.601  1.00  0.00    -0.398 OA
ATOM     23  HO  UNL     1      34.372  40.221  34.549  1.00  0.00     0.209 HD
ENDBRANCH  21  22
ENDBRANCH   5  21
TORSDOF 7
ENDMDL
MODEL 8
REMARK VINA RESULT:    -4.689      3.212      5.318
REMARK INTER + INTRA:          -7.299
REMARK INTER:                  -6.525
REMARK INTRA:                  -0.775
REMARK UNBOUND:                -1.102
REMARK  7 active torsions:
REMARK  status: ('A' for Active; 'I' for Inactive)
REMARK    1  A    between atoms: C_1  and  O_11 
REMARK    2  A    between atoms: C_2  and  N_9 
REMARK    3  A    between atoms: C_3  and  O_13 
REMARK    4  A    between atoms: C_4  and  O_15 
REMARK    5  A    between atoms: C_5  and  C_6 
REMARK    6  A    between atoms: C_6  and  O_17 
REMARK       I    between atoms: C_7  and  N_9 
REMARK    7  A    between atoms: O_15  and  S_20 
ROOT
HETATM    1  C   UNL     1      33.873  34.824  33.425  1.00  0.00     0.282 C 
HETATM    2  C   UNL     1      35.022  34.439  32.488  1.00  0.00     0.170 C 
HETATM    3  C   UNL     1      35.869  35.656  32.117  1.00  0.00     0.178 C 
HETATM    4  C   UNL     1      34.984  36.789  31.602  1.00  0.00     0.207 C 
HETATM    5  C   UNL     1      33.892  37.088  32.623  1.00  0.00     0.181 C 
HETATM    6  O   UNL     1      33.112  35.901  32.890  1.00  0.00    -0.349 OA
ENDROOT
BRANCH   2   7
HETATM    7  N   UNL     1      35.826  33.376  33.062  1.00  0.00    -0.349 N 
HETATM    8  C   UNL     1      36.295  32.354  32.338  1.00  0.00     0.214 C 
HETATM    9  C   UNL     1      36.984  31.269  33.111  1.00  0.00     0.117 C 
HETATM   10  O   UNL     1      36.155  32.302  31.116  1.00  0.00    -0.274 OA
ATOM     11  HN  UNL     1      36.043  33.409  34.057  1.00  0.00     0.163 HD
ENDBRANCH   2   7
BRANCH   3  12
HETATM   12  O   UNL     1      36.826  35.339  31.116  1.00  0.00    -0.391 OA
ATOM     13  HO  UNL     1      37.695  35.409  31.495  1.00  0.00     0.210 HD
ENDBRANCH   3  12
BRANCH   1  14
HETATM   14  O   UNL     1      34.385  35.169  34.682  1.00  0.00    -0.369 OA
ATOM     15  HO  UNL     1      35.294  35.435  34.607  1.00  0.00     0.212 HD
ENDBRANCH   1  14
BRANCH   4  16
HETATM   16  O   UNL     1      34.394  36.364  30.312  1.00  0.00    -0.246 OA
BRANCH  16  17
HETATM   17  S   UNL     1      34.817  37.124  28.969  1.00  0.00     0.252 S 
HETATM   18  O   UNL     1      36.147  37.636  29.214  1.00  0.00    -0.572 OA
HETATM   19  O   UNL     1      34.781  36.104  27.956  1.00  0.00    -0.572 OA
HETATM   20  O   UNL     1      33.862  38.168  28.765  1.00  0.00    -0.572 OA
ENDBRANCH  16  17
ENDBRANCH   4  16
BRANCH   5  21
HETATM   21  C   UNL     1      32.930  38.152  32.150  1.00  0.00     0.199 C 
BRANCH  21  22
HETATM   22  O   UNL     1      32.964  39.287  33.013  1.00  0.00    -0.398 OA
ATOM     23  HO  UNL     1      32.393  39.974  32.691  1.00  0.00     0.209 HD
ENDBRANCH  21  22
ENDBRANCH   5  21
TORSDOF 7
ENDMDL
MODEL 9
REMARK VINA RESULT:    -4.624      2.686      4.415
REMARK INTER + INTRA:          -7.212
REMARK INTER:                  -6.056
REMARK INTRA:                  -1.156
REMARK UNBOUND:                -1.102
REMARK  7 active torsions:
REMARK  status: ('A' for Active; 'I' for Inactive)
REMARK    1  A    between atoms: C_1  and  O_11 
REMARK    2  A    between atoms: C_2  and  N_9 
REMARK    3  A    between atoms: C_3  and  O_13 
REMARK    4  A    between atoms: C_4  and  O_15 
REMARK    5  A    between atoms: C_5  and  C_6 
REMARK    6  A    between atoms: C_6  and  O_17 
REMARK       I    between atoms: C_7  and  N_9 
REMARK    7  A    between atoms: O_15  and  S_20 
ROOT
HETATM    1  C   UNL     1      33.003  38.632  32.467  1.00  0.00     0.282 C 
HETATM    2  C   UNL     1      32.842  37.525  31.419  1.00  0.00     0.170 C 
HETATM    3  C   UNL     1      34.186  37.159  30.787  1.00  0.00     0.178 C 
HETATM    4  C   UNL     1      34.901  38.411  30.284  1.00  0.00     0.207 C 
HETATM    5  C   UNL     1      35.011  39.427  31.416  1.00  0.00     0.181 C 
HETATM    6  O   UNL     1      33.700  39.751  31.932  1.00  0.00    -0.349 OA
ENDROOT
BRANCH   2   7
HETATM    7  N   UNL     1      32.177  36.367  31.984  1.00  0.00    -0.349 N 
HETATM    8  C   UNL     1      31.193  35.720  31.352  1.00  0.00     0.214 C 
HETATM    9  C   UNL     1      30.517  34.634  32.135  1.00  0.00     0.117 C 
HETATM   10  O   UNL     1      30.854  36.008  30.204  1.00  0.00    -0.274 OA
ATOM     11  HN  UNL     1      32.472  36.032  32.901  1.00  0.00     0.163 HD
ENDBRANCH   2   7
BRANCH   3  12
HETATM   12  O   UNL     1      34.022  36.263  29.698  1.00  0.00    -0.391 OA
ATOM     13  HO  UNL     1      34.349  35.409  29.956  1.00  0.00     0.210 HD
ENDBRANCH   3  12
BRANCH   1  14
HETATM   14  O   UNL     1      33.679  38.127  33.585  1.00  0.00    -0.369 OA
ATOM     15  HO  UNL     1      34.539  37.811  33.336  1.00  0.00     0.212 HD
ENDBRANCH   1  14
BRANCH   4  16
HETATM   16  O   UNL     1      34.121  38.966  29.154  1.00  0.00    -0.246 OA
BRANCH  16  17
HETATM   17  S   UNL     1      34.759  38.966  27.687  1.00  0.00     0.252 S 
HETATM   18  O   UNL     1      35.726  37.891  27.683  1.00  0.00    -0.572 OA
HETATM   19  O   UNL     1      33.642  38.727  26.813  1.00  0.00    -0.572 OA
HETATM   20  O   UNL     1      35.369  40.247  27.501  1.00  0.00    -0.572 OA
ENDBRANCH  16  17
ENDBRANCH   4  16
BRANCH   5  21
HETATM   21  C   UNL     1      35.645  40.724  30.973  1.00  0.00     0.199 C 
BRANCH  21  22
HETATM   22  O   UNL     1      36.810  40.477  30.188  1.00  0.00    -0.398 OA
ATOM     23  HO  UNL     1      37.563  40.313  30.743  1.00  0.00     0.209 HD
ENDBRANCH  21  22
ENDBRANCH   5  21
TORSDOF 7
ENDMDL
MODEL 10
REMARK VINA RESULT:    -4.612      3.278      5.549
REMARK INTER + INTRA:          -7.197
REMARK INTER:                  -6.177
REMARK INTRA:                  -1.020
REMARK UNBOUND:                -1.102
REMARK  7 active torsions:
REMARK  status: ('A' for Active; 'I' for Inactive)
REMARK    1  A    between atoms: C_1  and  O_11 
REMARK    2  A    between atoms: C_2  and  N_9 
REMARK    3  A    between atoms: C_3  and  O_13 
REMARK    4  A    between atoms: C_4  and  O_15 
REMARK    5  A    between atoms: C_5  and  C_6 
REMARK    6  A    between atoms: C_6  and  O_17 
REMARK       I    between atoms: C_7  and  N_9 
REMARK    7  A    between atoms: O_15  and  S_20 
ROOT
HETATM    1  C   UNL     1      36.062  38.134  29.468  1.00  0.00     0.282 C 
HETATM    2  C   UNL     1      36.156  36.605  29.421  1.00  0.00     0.170 C 
HETATM    3  C   UNL     1      34.828  35.954  29.810  1.00  0.00     0.178 C 
HETATM    4  C   UNL     1      34.322  36.519  31.136  1.00  0.00     0.207 C 
HETATM    5  C   UNL     1      34.260  38.040  31.053  1.00  0.00     0.181 C 
HETATM    6  O   UNL     1      35.559  38.581  30.722  1.00  0.00    -0.349 OA
ENDROOT
BRANCH   2   7
HETATM    7  N   UNL     1      36.619  36.152  28.123  1.00  0.00    -0.349 N 
HETATM    8  C   UNL     1      37.915  35.989  27.835  1.00  0.00     0.214 C 
HETATM    9  C   UNL     1      38.229  35.656  26.407  1.00  0.00     0.117 C 
HETATM   10  O   UNL     1      38.794  36.121  28.687  1.00  0.00    -0.274 OA
ATOM     11  HN  UNL     1      35.929  35.949  27.400  1.00  0.00     0.163 HD
ENDBRANCH   2   7
BRANCH   3  12
HETATM   12  O   UNL     1      34.956  34.546  29.937  1.00  0.00    -0.391 OA
ATOM     13  HO  UNL     1      35.563  34.235  29.275  1.00  0.00     0.210 HD
ENDBRANCH   3  12
BRANCH   1  14
HETATM   14  O   UNL     1      35.243  38.588  28.426  1.00  0.00    -0.369 OA
ATOM     15  HO  UNL     1      35.702  38.530  27.596  1.00  0.00     0.212 HD
ENDBRANCH   1  14
BRANCH   4  16
HETATM   16  O   UNL     1      35.251  36.088  32.205  1.00  0.00    -0.246 OA
BRANCH  16  17
HETATM   17  S   UNL     1      34.863  34.839  33.125  1.00  0.00     0.252 S 
HETATM   18  O   UNL     1      33.520  34.471  32.735  1.00  0.00    -0.572 OA
HETATM   19  O   UNL     1      35.842  33.837  32.799  1.00  0.00    -0.572 OA
HETATM   20  O   UNL     1      34.930  35.286  34.483  1.00  0.00    -0.572 OA
ENDBRANCH  16  17
ENDBRANCH   4  16
BRANCH   5  21
HETATM   21  C   UNL     1      33.836  38.676  32.356  1.00  0.00     0.199 C 
BRANCH  21  22
HETATM   22  O   UNL     1      33.372  37.689  33.275  1.00  0.00    -0.398 OA
ATOM     23  HO  UNL     1      33.102  36.902  32.818  1.00  0.00     0.209 HD
ENDBRANCH  21  22
ENDBRANCH   5  21
TORSDOF 7
ENDMDL
MODEL 11
REMARK VINA RESULT:    -4.599      2.992      5.770
REMARK INTER + INTRA:          -7.179
REMARK INTER:                  -6.066
REMARK INTRA:                  -1.113
REMARK UNBOUND:                -1.102
REMARK  7 active torsions:
REMARK  status: ('A' for Active; 'I' for Inactive)
REMARK    1  A    between atoms: C_1  and  O_11 
REMARK    2  A    between atoms: C_2  and  N_9 
REMARK    3  A    between atoms: C_3  and  O_13 
REMARK    4  A    between atoms: C_4  and  O_15 
REMARK    5  A    between atoms: C_5  and  C_6 
REMARK    6  A    between atoms: C_6  and  O_17 
REMARK       I    between atoms: C_7  and  N_9 
REMARK    7  A    between atoms: O_15  and  S_20 
ROOT
HETATM    1  C   UNL     1      34.365  37.819  29.507  1.00  0.00     0.282 C 
HETATM    2  C   UNL     1      34.758  37.836  30.989  1.00  0.00     0.170 C 
HETATM    3  C   UNL     1      35.638  36.637  31.345  1.00  0.00     0.178 C 
HETATM    4  C   UNL     1      34.990  35.337  30.875  1.00  0.00     0.207 C 
HETATM    5  C   UNL     1      34.659  35.438  29.389  1.00  0.00     0.181 C 
HETATM    6  O   UNL     1      33.794  36.568  29.141  1.00  0.00    -0.349 OA
ENDROOT
BRANCH   2   7
HETATM    7  N   UNL     1      35.387  39.093  31.346  1.00  0.00    -0.349 N 
HETATM    8  C   UNL     1      34.806  39.989  32.151  1.00  0.00     0.214 C 
HETATM    9  C   UNL     1      35.527  41.295  32.301  1.00  0.00     0.117 C 
HETATM   10  O   UNL     1      33.739  39.759  32.720  1.00  0.00    -0.274 OA
ATOM     11  HN  UNL     1      36.311  39.303  30.967  1.00  0.00     0.163 HD
ENDBRANCH   2   7
BRANCH   3  12
HETATM   12  O   UNL     1      35.861  36.552  32.744  1.00  0.00    -0.391 OA
ATOM     13  HO  UNL     1      35.966  37.431  33.089  1.00  0.00     0.210 HD
ENDBRANCH   3  12
BRANCH   1  14
HETATM   14  O   UNL     1      35.491  38.089  28.719  1.00  0.00    -0.369 OA
ATOM     15  HO  UNL     1      35.823  37.287  28.332  1.00  0.00     0.212 HD
ENDBRANCH   1  14
BRANCH   4  16
HETATM   16  O   UNL     1      33.761  35.119  31.672  1.00  0.00    -0.246 OA
BRANCH  16  17
HETATM   17  S   UNL     1      33.793  34.089  32.896  1.00  0.00     0.252 S 
HETATM   18  O   UNL     1      35.101  33.475  32.854  1.00  0.00    -0.572 OA
HETATM   19  O   UNL     1      33.589  34.910  34.059  1.00  0.00    -0.572 OA
HETATM   20  O   UNL     1      32.742  33.145  32.669  1.00  0.00    -0.572 OA
ENDBRANCH  16  17
ENDBRANCH   4  16
BRANCH   5  21
HETATM   21  C   UNL     1      33.948  34.212  28.868  1.00  0.00     0.199 C 
BRANCH  21  22
HETATM   22  O   UNL     1      34.124  33.108  29.752  1.00  0.00    -0.398 OA
ATOM     23  HO  UNL     1      34.604  33.370  30.529  1.00  0.00     0.209 HD
ENDBRANCH  21  22
ENDBRANCH   5  21
TORSDOF 7
ENDMDL
MODEL 12
REMARK VINA RESULT:    -4.562      3.395      5.712
REMARK INTER + INTRA:          -7.131
REMARK INTER:                  -6.049
REMARK INTRA:                  -1.082
REMARK UNBOUND:                -1.102
REMARK  7 active torsions:
REMARK  status: ('A' for Active; 'I' for Inactive)
REMARK    1  A    between atoms: C_1  and  O_11 
REMARK    2  A    between atoms: C_2  and  N_9 
REMARK    3  A    between atoms: C_3  and  O_13 
REMARK    4  A    between atoms: C_4  and  O_15 
REMARK    5  A    between atoms: C_5  and  C_6 
REMARK    6  A    between atoms: C_6  and  O_17 
REMARK       I    between atoms: C_7  and  N_9 
REMARK    7  A    between atoms: O_15  and  S_20 
ROOT
HETATM    1  C   UNL     1      32.966  38.341  27.283  1.00  0.00     0.282 C 
HETATM    2  C   UNL     1      34.324  38.959  27.633  1.00  0.00     0.170 C 
HETATM    3  C   UNL     1      35.039  38.152  28.718  1.00  0.00     0.178 C 
HETATM    4  C   UNL     1      34.117  37.927  29.914  1.00  0.00     0.207 C 
HETATM    5  C   UNL     1      32.810  37.299  29.441  1.00  0.00     0.181 C 
HETATM    6  O   UNL     1      32.177  38.138  28.450  1.00  0.00    -0.349 OA
ENDROOT
BRANCH   2   7
HETATM    7  N   UNL     1      35.145  39.116  26.447  1.00  0.00    -0.349 N 
HETATM    8  C   UNL     1      35.210  40.262  25.761  1.00  0.00     0.214 C 
HETATM    9  C   UNL     1      35.990  40.212  24.481  1.00  0.00     0.117 C 
HETATM   10  O   UNL     1      34.651  41.288  26.149  1.00  0.00    -0.274 OA
ATOM     11  HN  UNL     1      35.695  38.321  26.124  1.00  0.00     0.163 HD
ENDBRANCH   2   7
BRANCH   3  12
HETATM   12  O   UNL     1      36.212  38.812  29.169  1.00  0.00    -0.391 OA
ATOM     13  HO  UNL     1      35.968  39.663  29.515  1.00  0.00     0.210 HD
ENDBRANCH   3  12
BRANCH   1  14
HETATM   14  O   UNL     1      33.160  37.129  26.610  1.00  0.00    -0.369 OA
ATOM     15  HO  UNL     1      33.808  37.232  25.923  1.00  0.00     0.212 HD
ENDBRANCH   1  14
BRANCH   4  16
HETATM   16  O   UNL     1      33.867  39.237  30.558  1.00  0.00    -0.246 OA
BRANCH  16  17
HETATM   17  S   UNL     1      34.373  39.484  32.055  1.00  0.00     0.252 S 
HETATM   18  O   UNL     1      33.175  39.613  32.855  1.00  0.00    -0.572 OA
HETATM   19  O   UNL     1      35.141  38.309  32.370  1.00  0.00    -0.572 OA
HETATM   20  O   UNL     1      35.147  40.687  32.038  1.00  0.00    -0.572 OA
ENDBRANCH  16  17
ENDBRANCH   4  16
BRANCH   5  21
HETATM   21  C   UNL     1      31.816  37.112  30.563  1.00  0.00     0.199 C 
BRANCH  21  22
HETATM   22  O   UNL     1      32.484  36.834  31.792  1.00  0.00    -0.398 OA
ATOM     23  HO  UNL     1      33.300  36.374  31.636  1.00  0.00     0.209 HD
ENDBRANCH  21  22
ENDBRANCH   5  21
TORSDOF 7
ENDMDL
MODEL 13
REMARK VINA RESULT:    -4.550      3.112      4.607
REMARK INTER + INTRA:          -7.116
REMARK INTER:                  -5.919
REMARK INTRA:                  -1.197
REMARK UNBOUND:                -1.102
REMARK  7 active torsions:
REMARK  status: ('A' for Active; 'I' for Inactive)
REMARK    1  A    between atoms: C_1  and  O_11 
REMARK    2  A    between atoms: C_2  and  N_9 
REMARK    3  A    between atoms: C_3  and  O_13 
REMARK    4  A    between atoms: C_4  and  O_15 
REMARK    5  A    between atoms: C_5  and  C_6 
REMARK    6  A    between atoms: C_6  and  O_17 
REMARK       I    between atoms: C_7  and  N_9 
REMARK    7  A    between atoms: O_15  and  S_20 
ROOT
HETATM    1  C   UNL     1      32.981  34.007  30.658  1.00  0.00     0.282 C 
HETATM    2  C   UNL     1      34.113  34.437  31.599  1.00  0.00     0.170 C 
HETATM    3  C   UNL     1      33.603  35.383  32.686  1.00  0.00     0.178 C 
HETATM    4  C   UNL     1      32.819  36.538  32.068  1.00  0.00     0.207 C 
HETATM    5  C   UNL     1      31.718  35.986  31.168  1.00  0.00     0.181 C 
HETATM    6  O   UNL     1      32.283  35.136  30.144  1.00  0.00    -0.349 OA
ENDROOT
BRANCH   2   7
HETATM    7  N   UNL     1      34.788  33.282  32.160  1.00  0.00    -0.349 N 
HETATM    8  C   UNL     1      36.115  33.228  32.317  1.00  0.00     0.214 C 
HETATM    9  C   UNL     1      36.664  31.909  32.776  1.00  0.00     0.117 C 
HETATM   10  O   UNL     1      36.840  34.195  32.086  1.00  0.00    -0.274 OA
ATOM     11  HN  UNL     1      34.229  32.479  32.446  1.00  0.00     0.163 HD
ENDBRANCH   2   7
BRANCH   3  12
HETATM   12  O   UNL     1      34.671  35.919  33.452  1.00  0.00    -0.391 OA
ATOM     13  HO  UNL     1      34.517  35.720  34.369  1.00  0.00     0.210 HD
ENDBRANCH   3  12
BRANCH   1  14
HETATM   14  O   UNL     1      32.100  33.158  31.338  1.00  0.00    -0.369 OA
ATOM     15  HO  UNL     1      32.582  32.566  31.903  1.00  0.00     0.212 HD
ENDBRANCH   1  14
BRANCH   4  16
HETATM   16  O   UNL     1      33.763  37.373  31.290  1.00  0.00    -0.246 OA
BRANCH  16  17
HETATM   17  S   UNL     1      34.091  38.857  31.790  1.00  0.00     0.252 S 
HETATM   18  O   UNL     1      32.948  39.266  32.575  1.00  0.00    -0.572 OA
HETATM   19  O   UNL     1      35.292  38.713  32.569  1.00  0.00    -0.572 OA
HETATM   20  O   UNL     1      34.261  39.660  30.619  1.00  0.00    -0.572 OA
ENDBRANCH  16  17
ENDBRANCH   4  16
BRANCH   5  21
HETATM   21  C   UNL     1      30.944  37.074  30.463  1.00  0.00     0.199 C 
BRANCH  21  22
HETATM   22  O   UNL     1      30.643  38.144  31.356  1.00  0.00    -0.398 OA
ATOM     23  HO  UNL     1      30.683  37.851  32.259  1.00  0.00     0.209 HD
ENDBRANCH  21  22
ENDBRANCH   5  21
TORSDOF 7
ENDMDL
MODEL 14
REMARK VINA RESULT:    -4.532      3.814      4.999
REMARK INTER + INTRA:          -7.091
REMARK INTER:                  -5.956
REMARK INTRA:                  -1.136
REMARK UNBOUND:                -1.102
REMARK  7 active torsions:
REMARK  status: ('A' for Active; 'I' for Inactive)
REMARK    1  A    between atoms: C_1  and  O_11 
REMARK    2  A    between atoms: C_2  and  N_9 
REMARK    3  A    between atoms: C_3  and  O_13 
REMARK    4  A    between atoms: C_4  and  O_15 
REMARK    5  A    between atoms: C_5  and  C_6 
REMARK    6  A    between atoms: C_6  and  O_17 
REMARK       I    between atoms: C_7  and  N_9 
REMARK    7  A    between atoms: O_15  and  S_20 
ROOT
HETATM    1  C   UNL     1      32.305  36.413  29.317  1.00  0.00     0.282 C 
HETATM    2  C   UNL     1      32.024  36.838  30.763  1.00  0.00     0.170 C 
HETATM    3  C   UNL     1      33.284  37.382  31.438  1.00  0.00     0.178 C 
HETATM    4  C   UNL     1      34.443  36.402  31.278  1.00  0.00     0.207 C 
HETATM    5  C   UNL     1      34.632  36.068  29.802  1.00  0.00     0.181 C 
HETATM    6  O   UNL     1      33.414  35.523  29.248  1.00  0.00    -0.349 OA
ENDROOT
BRANCH   2   7
HETATM    7  N   UNL     1      30.927  37.785  30.822  1.00  0.00    -0.349 N 
HETATM    8  C   UNL     1      29.655  37.408  30.988  1.00  0.00     0.214 C 
HETATM    9  C   UNL     1      28.632  38.499  30.882  1.00  0.00     0.117 C 
HETATM   10  O   UNL     1      29.345  36.235  31.198  1.00  0.00    -0.274 OA
ATOM     11  HN  UNL     1      31.134  38.780  30.735  1.00  0.00     0.163 HD
ENDBRANCH   2   7
BRANCH   3  12
HETATM   12  O   UNL     1      33.073  37.613  32.823  1.00  0.00    -0.391 OA
ATOM     13  HO  UNL     1      32.955  36.775  33.256  1.00  0.00     0.210 HD
ENDBRANCH   3  12
BRANCH   1  14
HETATM   14  O   UNL     1      32.543  37.548  28.531  1.00  0.00    -0.369 OA
ATOM     15  HO  UNL     1      33.456  37.806  28.592  1.00  0.00     0.212 HD
ENDBRANCH   1  14
BRANCH   4  16
HETATM   16  O   UNL     1      34.127  35.181  32.056  1.00  0.00    -0.246 OA
BRANCH  16  17
HETATM   17  S   UNL     1      35.000  34.828  33.349  1.00  0.00     0.252 S 
HETATM   18  O   UNL     1      36.188  35.646  33.252  1.00  0.00    -0.572 OA
HETATM   19  O   UNL     1      34.156  35.184  34.457  1.00  0.00    -0.572 OA
HETATM   20  O   UNL     1      35.296  33.430  33.279  1.00  0.00    -0.572 OA
ENDBRANCH  16  17
ENDBRANCH   4  16
BRANCH   5  21
HETATM   21  C   UNL     1      35.719  35.045  29.572  1.00  0.00     0.199 C 
BRANCH  21  22
HETATM   22  O   UNL     1      36.829  35.280  30.435  1.00  0.00    -0.398 OA
ATOM     23  HO  UNL     1      37.122  34.471  30.837  1.00  0.00     0.209 HD
ENDBRANCH  21  22
ENDBRANCH   5  21
TORSDOF 7
ENDMDL
MODEL 15
REMARK VINA RESULT:    -4.528     10.691     12.334
REMARK INTER + INTRA:          -7.085
REMARK INTER:                  -6.052
REMARK INTRA:                  -1.033
REMARK UNBOUND:                -1.102
REMARK  7 active torsions:
REMARK  status: ('A' for Active; 'I' for Inactive)
REMARK    1  A    between atoms: C_1  and  O_11 
REMARK    2  A    between atoms: C_2  and  N_9 
REMARK    3  A    between atoms: C_3  and  O_13 
REMARK    4  A    between atoms: C_4  and  O_15 
REMARK    5  A    between atoms: C_5  and  C_6 
REMARK    6  A    between atoms: C_6  and  O_17 
REMARK       I    between atoms: C_7  and  N_9 
REMARK    7  A    between atoms: O_15  and  S_20 
ROOT
HETATM    1  C   UNL     1      23.330  40.677  25.898  1.00  0.00     0.282 C 
HETATM    2  C   UNL     1      24.426  41.693  25.559  1.00  0.00     0.170 C 
HETATM    3  C   UNL     1      25.736  40.996  25.189  1.00  0.00     0.178 C 
HETATM    4  C   UNL     1      26.123  39.978  26.258  1.00  0.00     0.207 C 
HETATM    5  C   UNL     1      24.962  39.018  26.495  1.00  0.00     0.181 C 
HETATM    6  O   UNL     1      23.775  39.748  26.880  1.00  0.00    -0.349 OA
ENDROOT
BRANCH   2   7
HETATM    7  N   UNL     1      23.986  42.605  24.521  1.00  0.00    -0.349 N 
HETATM    8  C   UNL     1      23.370  43.761  24.788  1.00  0.00     0.214 C 
HETATM    9  C   UNL     1      22.853  44.516  23.599  1.00  0.00     0.117 C 
HETATM   10  O   UNL     1      23.224  44.172  25.940  1.00  0.00    -0.274 OA
ATOM     11  HN  UNL     1      24.154  42.355  23.546  1.00  0.00     0.163 HD
ENDBRANCH   2   7
BRANCH   3  12
HETATM   12  O   UNL     1      26.798  41.928  25.044  1.00  0.00    -0.391 OA
ATOM     13  HO  UNL     1      27.596  41.450  24.847  1.00  0.00     0.210 HD
ENDBRANCH   3  12
BRANCH   1  14
HETATM   14  O   UNL     1      22.937  40.003  24.734  1.00  0.00    -0.369 OA
ATOM     15  HO  UNL     1      22.597  39.143  24.950  1.00  0.00     0.212 HD
ENDBRANCH   1  14
BRANCH   4  16
HETATM   16  O   UNL     1      26.456  40.715  27.499  1.00  0.00    -0.246 OA
BRANCH  16  17
HETATM   17  S   UNL     1      27.945  40.639  28.079  1.00  0.00     0.252 S 
HETATM   18  O   UNL     1      27.930  41.423  29.295  1.00  0.00    -0.572 OA
HETATM   19  O   UNL     1      28.166  39.237  28.312  1.00  0.00    -0.572 OA
HETATM   20  O   UNL     1      28.807  41.198  27.084  1.00  0.00    -0.572 OA
ENDBRANCH  16  17
ENDBRANCH   4  16
BRANCH   5  21
HETATM   21  C   UNL     1      25.245  38.023  27.595  1.00  0.00     0.199 C 
BRANCH  21  22
HETATM   22  O   UNL     1      25.134  38.638  28.877  1.00  0.00    -0.398 OA
ATOM     23  HO  UNL     1      24.317  38.399  29.297  1.00  0.00     0.209 HD
ENDBRANCH  21  22
ENDBRANCH   5  21
TORSDOF 7
ENDMDL
MODEL 16
REMARK VINA RESULT:    -4.516      5.056      8.607
REMARK INTER + INTRA:          -7.070
REMARK INTER:                  -6.026
REMARK INTRA:                  -1.044
REMARK UNBOUND:                -1.102
REMARK  7 active torsions:
REMARK  status: ('A' for Active; 'I' for Inactive)
REMARK    1  A    between atoms: C_1  and  O_11 
REMARK    2  A    between atoms: C_2  and  N_9 
REMARK    3  A    between atoms: C_3  and  O_13 
REMARK    4  A    between atoms: C_4  and  O_15 
REMARK    5  A    between atoms: C_5  and  C_6 
REMARK    6  A    between atoms: C_6  and  O_17 
REMARK       I    between atoms: C_7  and  N_9 
REMARK    7  A    between atoms: O_15  and  S_20 
ROOT
HETATM    1  C   UNL     1      33.411  33.153  31.855  1.00  0.00     0.282 C 
HETATM    2  C   UNL     1      34.868  33.501  32.176  1.00  0.00     0.170 C 
HETATM    3  C   UNL     1      35.828  32.452  31.614  1.00  0.00     0.178 C 
HETATM    4  C   UNL     1      35.401  31.050  32.043  1.00  0.00     0.207 C 
HETATM    5  C   UNL     1      33.943  30.819  31.659  1.00  0.00     0.181 C 
HETATM    6  O   UNL     1      33.098  31.825  32.261  1.00  0.00    -0.349 OA
ENDROOT
BRANCH   2   7
HETATM    7  N   UNL     1      35.198  34.837  31.715  1.00  0.00    -0.349 N 
HETATM    8  C   UNL     1      34.898  35.936  32.414  1.00  0.00     0.214 C 
HETATM    9  C   UNL     1      35.177  37.241  31.729  1.00  0.00     0.117 C 
HETATM   10  O   UNL     1      34.409  35.879  33.543  1.00  0.00    -0.274 OA
ATOM     11  HN  UNL     1      35.677  34.941  30.821  1.00  0.00     0.163 HD
ENDBRANCH   2   7
BRANCH   3  12
HETATM   12  O   UNL     1      37.159  32.674  32.054  1.00  0.00    -0.391 OA
ATOM     13  HO  UNL     1      37.544  33.361  31.522  1.00  0.00     0.210 HD
ENDBRANCH   3  12
BRANCH   1  14
HETATM   14  O   UNL     1      33.181  33.310  30.483  1.00  0.00    -0.369 OA
ATOM     15  HO  UNL     1      32.474  33.927  30.335  1.00  0.00     0.212 HD
ENDBRANCH   1  14
BRANCH   4  16
HETATM   16  O   UNL     1      35.581  30.941  33.509  1.00  0.00    -0.246 OA
BRANCH  16  17
HETATM   17  S   UNL     1      36.586  29.843  34.096  1.00  0.00     0.252 S 
HETATM   18  O   UNL     1      35.770  28.685  34.389  1.00  0.00    -0.572 OA
HETATM   19  O   UNL     1      37.528  29.618  33.032  1.00  0.00    -0.572 OA
HETATM   20  O   UNL     1      37.173  30.406  35.272  1.00  0.00    -0.572 OA
ENDBRANCH  16  17
ENDBRANCH   4  16
BRANCH   5  21
HETATM   21  C   UNL     1      33.427  29.476  32.117  1.00  0.00     0.199 C 
BRANCH  21  22
HETATM   22  O   UNL     1      32.959  29.544  33.462  1.00  0.00    -0.398 OA
ATOM     23  HO  UNL     1      32.971  30.440  33.780  1.00  0.00     0.209 HD
ENDBRANCH  21  22
ENDBRANCH   5  21
TORSDOF 7
ENDMDL
MODEL 17
REMARK VINA RESULT:    -4.464      6.085      8.838
REMARK INTER + INTRA:          -7.001
REMARK INTER:                  -5.838
REMARK INTRA:                  -1.163
REMARK UNBOUND:                -1.102
REMARK  7 active torsions:
REMARK  status: ('A' for Active; 'I' for Inactive)
REMARK    1  A    between atoms: C_1  and  O_11 
REMARK    2  A    between atoms: C_2  and  N_9 
REMARK    3  A    between atoms: C_3  and  O_13 
REMARK    4  A    between atoms: C_4  and  O_15 
REMARK    5  A    between atoms: C_5  and  C_6 
REMARK    6  A    between atoms: C_6  and  O_17 
REMARK       I    between atoms: C_7  and  N_9 
REMARK    7  A    between atoms: O_15  and  S_20 
ROOT
HETATM    1  C   UNL     1      36.158  32.672  29.945  1.00  0.00     0.282 C 
HETATM    2  C   UNL     1      35.584  32.841  31.356  1.00  0.00     0.170 C 
HETATM    3  C   UNL     1      36.611  32.463  32.424  1.00  0.00     0.178 C 
HETATM    4  C   UNL     1      37.197  31.082  32.139  1.00  0.00     0.207 C 
HETATM    5  C   UNL     1      37.746  31.043  30.717  1.00  0.00     0.181 C 
HETATM    6  O   UNL     1      36.708  31.372  29.766  1.00  0.00    -0.349 OA
ENDROOT
BRANCH   2   7
HETATM    7  N   UNL     1      35.071  34.184  31.551  1.00  0.00    -0.349 N 
HETATM    8  C   UNL     1      33.931  34.435  32.202  1.00  0.00     0.214 C 
HETATM    9  C   UNL     1      33.471  35.862  32.189  1.00  0.00     0.117 C 
HETATM   10  O   UNL     1      33.291  33.545  32.763  1.00  0.00    -0.274 OA
ATOM     11  HN  UNL     1      35.603  34.970  31.177  1.00  0.00     0.163 HD
ENDBRANCH   2   7
BRANCH   3  12
HETATM   12  O   UNL     1      36.033  32.451  33.721  1.00  0.00    -0.391 OA
ATOM     13  HO  UNL     1      36.331  31.673  34.179  1.00  0.00     0.210 HD
ENDBRANCH   3  12
BRANCH   1  14
HETATM   14  O   UNL     1      37.135  33.649  29.714  1.00  0.00    -0.369 OA
ATOM     15  HO  UNL     1      36.976  34.085  28.885  1.00  0.00     0.212 HD
ENDBRANCH   1  14
BRANCH   4  16
HETATM   16  O   UNL     1      36.122  30.079  32.314  1.00  0.00    -0.246 OA
BRANCH  16  17
HETATM   17  S   UNL     1      36.177  29.083  33.565  1.00  0.00     0.252 S 
HETATM   18  O   UNL     1      37.580  28.824  33.796  1.00  0.00    -0.572 OA
HETATM   19  O   UNL     1      35.552  29.816  34.632  1.00  0.00    -0.572 OA
HETATM   20  O   UNL     1      35.463  27.902  33.185  1.00  0.00    -0.572 OA
ENDBRANCH  16  17
ENDBRANCH   4  16
BRANCH   5  21
HETATM   21  C   UNL     1      38.280  29.683  30.337  1.00  0.00     0.199 C 
BRANCH  21  22
HETATM   22  O   UNL     1      39.061  29.131  31.394  1.00  0.00    -0.398 OA
ATOM     23  HO  UNL     1      39.955  29.449  31.355  1.00  0.00     0.209 HD
ENDBRANCH  21  22
ENDBRANCH   5  21
TORSDOF 7
ENDMDL
MODEL 18
REMARK VINA RESULT:    -4.452      3.363      6.201
REMARK INTER + INTRA:          -6.985
REMARK INTER:                  -5.792
REMARK INTRA:                  -1.192
REMARK UNBOUND:                -1.102
REMARK  7 active torsions:
REMARK  status: ('A' for Active; 'I' for Inactive)
REMARK    1  A    between atoms: C_1  and  O_11 
REMARK    2  A    between atoms: C_2  and  N_9 
REMARK    3  A    between atoms: C_3  and  O_13 
REMARK    4  A    between atoms: C_4  and  O_15 
REMARK    5  A    between atoms: C_5  and  C_6 
REMARK    6  A    between atoms: C_6  and  O_17 
REMARK       I    between atoms: C_7  and  N_9 
REMARK    7  A    between atoms: O_15  and  S_20 
ROOT
HETATM    1  C   UNL     1      35.909  36.094  29.251  1.00  0.00     0.282 C 
HETATM    2  C   UNL     1      35.314  36.962  30.366  1.00  0.00     0.170 C 
HETATM    3  C   UNL     1      35.506  36.315  31.737  1.00  0.00     0.178 C 
HETATM    4  C   UNL     1      35.009  34.871  31.724  1.00  0.00     0.207 C 
HETATM    5  C   UNL     1      35.680  34.110  30.585  1.00  0.00     0.181 C 
HETATM    6  O   UNL     1      35.419  34.760  29.321  1.00  0.00    -0.349 OA
ENDROOT
BRANCH   2   7
HETATM    7  N   UNL     1      35.855  38.307  30.322  1.00  0.00    -0.349 N 
HETATM    8  C   UNL     1      35.107  39.394  30.539  1.00  0.00     0.214 C 
HETATM    9  C   UNL     1      35.789  40.711  30.314  1.00  0.00     0.117 C 
HETATM   10  O   UNL     1      33.929  39.316  30.887  1.00  0.00    -0.274 OA
ATOM     11  HN  UNL     1      36.847  38.429  30.118  1.00  0.00     0.163 HD
ENDBRANCH   2   7
BRANCH   3  12
HETATM   12  O   UNL     1      34.808  37.024  32.750  1.00  0.00    -0.391 OA
ATOM     13  HO  UNL     1      34.391  36.395  33.329  1.00  0.00     0.210 HD
ENDBRANCH   3  12
BRANCH   1  14
HETATM   14  O   UNL     1      37.306  36.105  29.342  1.00  0.00    -0.369 OA
ATOM     15  HO  UNL     1      37.613  35.334  29.804  1.00  0.00     0.212 HD
ENDBRANCH   1  14
BRANCH   4  16
HETATM   16  O   UNL     1      33.539  34.890  31.547  1.00  0.00    -0.246 OA
BRANCH  16  17
HETATM   17  S   UNL     1      32.601  34.346  32.724  1.00  0.00     0.252 S 
HETATM   18  O   UNL     1      32.582  32.908  32.573  1.00  0.00    -0.572 OA
HETATM   19  O   UNL     1      33.254  34.781  33.929  1.00  0.00    -0.572 OA
HETATM   20  O   UNL     1      31.310  34.931  32.528  1.00  0.00    -0.572 OA
ENDBRANCH  16  17
ENDBRANCH   4  16
BRANCH   5  21
HETATM   21  C   UNL     1      35.183  32.689  30.463  1.00  0.00     0.199 C 
BRANCH  21  22
HETATM   22  O   UNL     1      33.904  32.651  29.833  1.00  0.00    -0.398 OA
ATOM     23  HO  UNL     1      33.809  33.369  29.218  1.00  0.00     0.209 HD
ENDBRANCH  21  22
ENDBRANCH   5  21
TORSDOF 7
ENDMDL
MODEL 19
REMARK VINA RESULT:    -4.324      3.234      5.011
REMARK INTER + INTRA:          -6.817
REMARK INTER:                  -5.632
REMARK INTRA:                  -1.184
REMARK UNBOUND:                -1.102
REMARK  7 active torsions:
REMARK  status: ('A' for Active; 'I' for Inactive)
REMARK    1  A    between atoms: C_1  and  O_11 
REMARK    2  A    between atoms: C_2  and  N_9 
REMARK    3  A    between atoms: C_3  and  O_13 
REMARK    4  A    between atoms: C_4  and  O_15 
REMARK    5  A    between atoms: C_5  and  C_6 
REMARK    6  A    between atoms: C_6  and  O_17 
REMARK       I    between atoms: C_7  and  N_9 
REMARK    7  A    between atoms: O_15  and  S_20 
ROOT
HETATM    1  C   UNL     1      32.161  36.221  29.463  1.00  0.00     0.282 C 
HETATM    2  C   UNL     1      31.800  35.123  30.469  1.00  0.00     0.170 C 
HETATM    3  C   UNL     1      31.918  35.626  31.908  1.00  0.00     0.178 C 
HETATM    4  C   UNL     1      33.281  36.275  32.140  1.00  0.00     0.207 C 
HETATM    5  C   UNL     1      33.518  37.355  31.089  1.00  0.00     0.181 C 
HETATM    6  O   UNL     1      33.430  36.794  29.760  1.00  0.00    -0.349 OA
ENDROOT
BRANCH   2   7
HETATM    7  N   UNL     1      30.484  34.578  30.194  1.00  0.00    -0.349 N 
HETATM    8  C   UNL     1      30.218  33.269  30.251  1.00  0.00     0.214 C 
HETATM    9  C   UNL     1      28.848  32.861  29.798  1.00  0.00     0.117 C 
HETATM   10  O   UNL     1      31.052  32.450  30.637  1.00  0.00    -0.274 OA
ATOM     11  HN  UNL     1      29.731  35.219  29.947  1.00  0.00     0.163 HD
ENDBRANCH   2   7
BRANCH   3  12
HETATM   12  O   UNL     1      31.755  34.570  32.844  1.00  0.00    -0.391 OA
ATOM     13  HO  UNL     1      32.603  34.367  33.223  1.00  0.00     0.210 HD
ENDBRANCH   3  12
BRANCH   1  14
HETATM   14  O   UNL     1      31.168  37.209  29.468  1.00  0.00    -0.369 OA
ATOM     15  HO  UNL     1      31.502  38.011  29.853  1.00  0.00     0.212 HD
ENDBRANCH   1  14
BRANCH   4  16
HETATM   16  O   UNL     1      34.316  35.220  32.050  1.00  0.00    -0.246 OA
BRANCH  16  17
HETATM   17  S   UNL     1      35.119  34.795  33.367  1.00  0.00     0.252 S 
HETATM   18  O   UNL     1      35.341  33.372  33.246  1.00  0.00    -0.572 OA
HETATM   19  O   UNL     1      36.332  35.566  33.309  1.00  0.00    -0.572 OA
HETATM   20  O   UNL     1      34.286  35.122  34.483  1.00  0.00    -0.572 OA
ENDBRANCH  16  17
ENDBRANCH   4  16
BRANCH   5  21
HETATM   21  C   UNL     1      34.880  37.994  31.210  1.00  0.00     0.199 C 
BRANCH  21  22
HETATM   22  O   UNL     1      35.212  38.227  32.577  1.00  0.00    -0.398 OA
ATOM     23  HO  UNL     1      34.431  38.392  33.092  1.00  0.00     0.209 HD
ENDBRANCH  21  22
ENDBRANCH   5  21
TORSDOF 7
ENDMDL
MODEL 20
REMARK VINA RESULT:    -4.287      3.415      5.367
REMARK INTER + INTRA:          -6.768
REMARK INTER:                  -5.580
REMARK INTRA:                  -1.187
REMARK UNBOUND:                -1.102
REMARK  7 active torsions:
REMARK  status: ('A' for Active; 'I' for Inactive)
REMARK    1  A    between atoms: C_1  and  O_11 
REMARK    2  A    between atoms: C_2  and  N_9 
REMARK    3  A    between atoms: C_3  and  O_13 
REMARK    4  A    between atoms: C_4  and  O_15 
REMARK    5  A    between atoms: C_5  and  C_6 
REMARK    6  A    between atoms: C_6  and  O_17 
REMARK       I    between atoms: C_7  and  N_9 
REMARK    7  A    between atoms: O_15  and  S_20 
ROOT
HETATM    1  C   UNL     1      35.636  35.096  32.822  1.00  0.00     0.282 C 
HETATM    2  C   UNL     1      34.661  34.219  32.028  1.00  0.00     0.170 C 
HETATM    3  C   UNL     1      34.263  34.883  30.709  1.00  0.00     0.178 C 
HETATM    4  C   UNL     1      33.778  36.310  30.953  1.00  0.00     0.207 C 
HETATM    5  C   UNL     1      34.835  37.083  31.736  1.00  0.00     0.181 C 
HETATM    6  O   UNL     1      35.127  36.415  32.983  1.00  0.00    -0.349 OA
ENDROOT
BRANCH   2   7
HETATM    7  N   UNL     1      35.207  32.891  31.820  1.00  0.00    -0.349 N 
HETATM    8  C   UNL     1      34.489  31.778  32.002  1.00  0.00     0.214 C 
HETATM    9  C   UNL     1      35.244  30.488  31.886  1.00  0.00     0.117 C 
HETATM   10  O   UNL     1      33.286  31.814  32.263  1.00  0.00    -0.274 OA
ATOM     11  HN  UNL     1      36.179  32.802  31.524  1.00  0.00     0.163 HD
ENDBRANCH   2   7
BRANCH   3  12
HETATM   12  O   UNL     1      33.231  34.161  30.053  1.00  0.00    -0.391 OA
ATOM     13  HO  UNL     1      33.593  33.759  29.271  1.00  0.00     0.210 HD
ENDBRANCH   3  12
BRANCH   1  14
HETATM   14  O   UNL     1      36.876  35.130  32.171  1.00  0.00    -0.369 OA
ATOM     15  HO  UNL     1      37.532  34.675  32.686  1.00  0.00     0.212 HD
ENDBRANCH   1  14
BRANCH   4  16
HETATM   16  O   UNL     1      32.508  36.244  31.711  1.00  0.00    -0.246 OA
BRANCH  16  17
HETATM   17  S   UNL     1      31.154  36.740  31.017  1.00  0.00     0.252 S 
HETATM   18  O   UNL     1      31.278  36.380  29.621  1.00  0.00    -0.572 OA
HETATM   19  O   UNL     1      30.117  36.014  31.699  1.00  0.00    -0.572 OA
HETATM   20  O   UNL     1      31.085  38.156  31.208  1.00  0.00    -0.572 OA
ENDBRANCH  16  17
ENDBRANCH   4  16
BRANCH   5  21
HETATM   21  C   UNL     1      34.395  38.486  32.078  1.00  0.00     0.199 C 
BRANCH  21  22
HETATM   22  O   UNL     1      33.549  38.487  33.226  1.00  0.00    -0.398 OA
ATOM     23  HO  UNL     1      33.131  37.641  33.339  1.00  0.00     0.209 HD
ENDBRANCH  21  22
ENDBRANCH   5  21
TORSDOF 7
ENDMDL
