REMARK  10 active torsions:
REMARK  status: ('A' for Active; 'I' for Inactive)
REMARK    1  A    between atoms: C_3  and  C_4 
REMARK    2  A    between atoms: C_7  and  C_11 
REMARK       I    between atoms: C_10  and  N_46 
REMARK    3  A    between atoms: C_10  and  C_19 
REMARK    4  A    between atoms: C_12  and  C_24 
REMARK    5  A    between atoms: C_16  and  C_18 
REMARK    6  A    between atoms: C_23  and  C_25 
REMARK    7  A    between atoms: C_24  and  C_32 
REMARK    8  A    between atoms: C_24  and  N_46 
REMARK    9  A    between atoms: C_28  and  C_31 
REMARK       I    between atoms: C_32  and  N_50 
REMARK   10  A    between atoms: C_33  and  N_50 
ROOT
HETATM    1  C   UNL     1       5.810 -17.837  21.033  1.00  0.00     0.210 C 
ENDROOT
BRANCH   1   2
HETATM    2  C   UNL     1       6.690 -17.079  20.058  1.00  0.00    -0.026 A 
HETATM    3  C   UNL     1       6.806 -17.539  18.744  1.00  0.00     0.025 A 
HETATM    4  C   UNL     1       7.610 -16.874  17.817  1.00  0.00     0.048 A 
HETATM    5  C   UNL     1       8.311 -15.729  18.198  1.00  0.00     0.016 A 
HETATM    6  C   UNL     1       8.206 -15.256  19.507  1.00  0.00     0.001 A 
HETATM    7  C   UNL     1       7.401 -15.930  20.428  1.00  0.00     0.010 A 
BRANCH   4   8
HETATM    8  C   UNL     1       7.693 -17.413  16.435  1.00  0.00     0.417 C 
HETATM    9  F   UNL     1       6.496 -17.862  15.975  1.00  0.00    -0.166 F 
HETATM   10  F   UNL     1       8.539 -18.470  16.340  1.00  0.00    -0.166 F 
HETATM   11  F   UNL     1       8.132 -16.505  15.528  1.00  0.00    -0.166 F 
ENDBRANCH   4   8
ENDBRANCH   1   2
BRANCH   1  12
HETATM   12  C   UNL     1       6.587 -18.553  22.091  1.00  0.00     0.249 C 
HETATM   13  N   UNL     1       6.698 -19.888  21.736  1.00  0.00    -0.323 N 
ATOM     14  HN  UNL     1       6.203 -20.258  20.925  1.00  0.00     0.169 HD
HETATM   15  O   UNL     1       7.195 -17.943  22.961  1.00  0.00    -0.270 OA
BRANCH  13  16
HETATM   16  C   UNL     1       7.499 -20.703  22.513  1.00  0.00     0.061 A 
HETATM   17  C   UNL     1       6.799 -21.645  23.239  1.00  0.00     0.117 A 
HETATM   18  N   UNL     1       7.377 -22.520  24.086  1.00  0.00    -0.373 N 
HETATM   19  C   UNL     1       8.723 -22.436  24.190  1.00  0.00     0.088 A 
ATOM     20  HN  UNL     1       6.834 -23.202  24.615  1.00  0.00     0.164 HD
HETATM   21  C   UNL     1       9.508 -21.540  23.476  1.00  0.00     0.031 A 
HETATM   22  C   UNL     1       8.891 -20.637  22.614  1.00  0.00     0.004 A 
BRANCH  22  23
HETATM   23  C   UNL     1       9.745 -19.730  21.861  1.00  0.00    -0.024 A 
HETATM   24  C   UNL     1      10.768 -19.033  22.507  1.00  0.00     0.013 A 
HETATM   25  C   UNL     1      11.603 -18.174  21.793  1.00  0.00     0.017 A 
HETATM   26  C   UNL     1      11.425 -18.004  20.420  1.00  0.00     0.048 A 
HETATM   27  C   UNL     1      10.404 -18.705  19.774  1.00  0.00     0.017 A 
HETATM   28  C   UNL     1       9.567 -19.563  20.487  1.00  0.00     0.013 A 
BRANCH  26  29
HETATM   29  C   UNL     1      12.318 -17.102  19.648  1.00  0.00     0.417 C 
HETATM   30  F   UNL     1      13.609 -17.543  19.699  1.00  0.00    -0.166 F 
HETATM   31  F   UNL     1      11.987 -17.040  18.326  1.00  0.00    -0.166 F 
HETATM   32  F   UNL     1      12.335 -15.821  20.098  1.00  0.00    -0.166 F 
ENDBRANCH  26  29
ENDBRANCH  22  23
ENDBRANCH  13  16
ENDBRANCH   1  12
BRANCH   1  33
HETATM   33  N   UNL     1       4.808 -17.044  21.684  1.00  0.00    -0.340 N 
HETATM   34  C   UNL     1       3.716 -16.777  20.925  1.00  0.00     0.254 C 
HETATM   35  O   UNL     1       3.490 -17.317  19.857  1.00  0.00    -0.268 OA
ATOM     36  HN  UNL     1       4.909 -16.708  22.642  1.00  0.00     0.164 HD
BRANCH  34  37
HETATM   37  C   UNL     1       2.788 -15.732  21.365  1.00  0.00     0.058 A 
HETATM   38  C   UNL     1       2.458 -15.629  22.702  1.00  0.00     0.105 A 
HETATM   39  N   UNL     1       1.589 -14.714  23.179  1.00  0.00    -0.374 N 
HETATM   40  C   UNL     1       1.021 -13.888  22.268  1.00  0.00     0.088 A 
ATOM     41  HN  UNL     1       1.371 -14.648  24.173  1.00  0.00     0.164 HD
HETATM   42  C   UNL     1       1.296 -13.918  20.910  1.00  0.00     0.030 A 
HETATM   43  C   UNL     1       2.201 -14.864  20.445  1.00  0.00    -0.008 A 
BRANCH  43  44
HETATM   44  C   UNL     1       2.510 -14.879  19.032  1.00  0.00    -0.025 A 
HETATM   45  C   UNL     1       1.500 -15.075  18.089  1.00  0.00     0.013 A 
HETATM   46  C   UNL     1       1.811 -15.086  16.728  1.00  0.00     0.017 A 
HETATM   47  C   UNL     1       3.131 -14.913  16.317  1.00  0.00     0.048 A 
HETATM   48  C   UNL     1       4.139 -14.720  17.261  1.00  0.00     0.017 A 
HETATM   49  C   UNL     1       3.828 -14.697  18.618  1.00  0.00     0.013 A 
BRANCH  47  50
HETATM   50  C   UNL     1       3.480 -14.914  14.876  1.00  0.00     0.417 C 
HETATM   51  F   UNL     1       2.975 -15.976  14.200  1.00  0.00    -0.166 F 
HETATM   52  F   UNL     1       2.962 -13.810  14.275  1.00  0.00    -0.166 F 
HETATM   53  F   UNL     1       4.828 -14.876  14.660  1.00  0.00    -0.166 F 
ENDBRANCH  47  50
ENDBRANCH  43  44
ENDBRANCH  34  37
ENDBRANCH   1  33
TORSDOF 10
