REMARK  7 active torsions:
REMARK  status: ('A' for Active; 'I' for Inactive)
REMARK    1  A    between atoms: C_1  and  C_2 
REMARK    2  A    between atoms: C_2  and  N_25 
REMARK    3  A    between atoms: C_9  and  C_16 
REMARK    4  A    between atoms: C_10  and  C_11 
REMARK    5  A    between atoms: C_10  and  O_27 
REMARK    6  A    between atoms: C_11  and  C_12 
REMARK    7  A    between atoms: C_13  and  O_27 
ROOT
HETATM    1  C   UNL     1       5.619  51.146  59.865  1.00  0.00     0.082 A 
HETATM    2  C   UNL     1       5.983  52.487  59.644  1.00  0.00     0.079 A 
HETATM    3  C   UNL     1       4.711  50.498  58.963  1.00  0.00     0.008 A 
HETATM    4  C   UNL     1       5.478  53.051  58.493  1.00  0.00     0.119 A 
HETATM    5  C   UNL     1       4.646  52.433  57.571  1.00  0.00     0.043 A 
HETATM    6  C   UNL     1       4.270  51.114  57.804  1.00  0.00     0.018 A 
HETATM    7  F   UNL     1       5.748  54.345  58.183  1.00  0.00    -0.206 F 
ENDROOT
BRANCH   3   8
HETATM    8  C   UNL     1       4.319  49.053  59.152  1.00  0.00    -0.022 A 
HETATM    9  C   UNL     1       3.021  48.743  58.968  1.00  0.00     0.028 A 
HETATM   10  C   UNL     1       2.626  47.418  59.018  1.00  0.00     0.019 A 
HETATM   11  C   UNL     1       1.335  46.779  58.841  1.00  0.00     0.066 A 
HETATM   12  C   UNL     1       3.531  46.338  59.341  1.00  0.00     0.060 A 
HETATM   13  N   UNL     1       1.537  45.472  59.046  1.00  0.00    -0.302 N 
HETATM   14  N   UNL     1       2.854  45.159  59.307  1.00  0.00    -0.300 N 
ATOM     15  HN  UNL     1       0.791  44.777  59.012  1.00  0.00     0.186 HD
ATOM     16  HN  UNL     1       3.244  44.227  59.447  1.00  0.00     0.187 HD
HETATM   17  C   UNL     1       4.896  46.671  59.574  1.00  0.00     0.033 A 
HETATM   18  C   UNL     1       5.239  48.032  59.442  1.00  0.00     0.014 A 
BRANCH  11  19
HETATM   19  C   UNL     1       0.051  47.501  58.549  1.00  0.00     0.330 C 
BRANCH  19  20
HETATM   20  N   UNL     1      -0.365  47.616  57.124  1.00  0.00     0.085 N 
HETATM   21  C   UNL     1       0.508  48.487  56.340  1.00  0.00     0.309 C 
HETATM   22  C   UNL     1      -0.617  46.256  56.572  1.00  0.00     0.309 C 
ENDBRANCH  19  20
ENDBRANCH  11  19
ENDBRANCH   3   8
BRANCH   1  23
HETATM   23  O   UNL     1       6.004  50.470  60.943  1.00  0.00    -0.350 OA
BRANCH  23  24
HETATM   24  C   UNL     1       6.897  51.011  61.908  1.00  0.00     0.180 C 
BRANCH  24  25
HETATM   25  C   UNL     1       7.250  49.889  62.858  1.00  0.00     0.066 C 
BRANCH  25  26
HETATM   26  C   UNL     1       6.109  49.431  63.714  1.00  0.00    -0.041 A 
HETATM   27  C   UNL     1       5.459  48.232  63.376  1.00  0.00     0.010 A 
HETATM   28  C   UNL     1       4.409  47.886  64.231  1.00  0.00     0.018 A 
HETATM   29  C   UNL     1       3.998  48.670  65.295  1.00  0.00     0.087 A 
HETATM   30  N   UNL     1       4.647  49.819  65.606  1.00  0.00    -0.375 N 
HETATM   31  C   UNL     1       5.685  50.195  64.803  1.00  0.00     0.094 A 
ATOM     32  HN  UNL     1       4.370  50.382  66.410  1.00  0.00     0.164 HD
ENDBRANCH  25  26
ENDBRANCH  24  25
ENDBRANCH  23  24
ENDBRANCH   1  23
TORSDOF 7
