REMARK  6 active torsions:
REMARK  status: ('A' for Active; 'I' for Inactive)
REMARK    1  A    between atoms: C_1  and  C_13 
REMARK    2  A    between atoms: C_2  and  C_17 
REMARK    3  A    between atoms: C_9  and  C_10 
REMARK    4  A    between atoms: C_10  and  C_11 
REMARK    5  A    between atoms: C_11  and  C_12 
REMARK    6  A    between atoms: C_12  and  C_13 
ROOT
HETATM    1  C   UNL     1      -3.901 -15.827   1.722  1.00  0.00     0.026 A 
HETATM    2  C   UNL     1      -3.963 -16.921   0.894  1.00  0.00     0.038 A 
HETATM    3  C   UNL     1      -4.679 -18.030   1.322  1.00  0.00     0.131 A 
HETATM    4  N   UNL     1      -5.311 -18.036   2.475  1.00  0.00    -0.318 N 
ATOM      5  HN  UNL     1      -5.852 -18.840   2.794  1.00  0.00     0.169 HD
HETATM    6  N   UNL     1      -4.528 -15.831   2.887  1.00  0.00    -0.333 N 
ATOM      7  HN  UNL     1      -4.496 -15.028   3.516  1.00  0.00     0.168 HD
HETATM    8  C   UNL     1      -5.199 -16.931   3.195  1.00  0.00     0.194 A 
HETATM    9  N   UNL     1      -5.866 -16.906   4.480  1.00  0.00    -0.063 NA
HETATM   10  N   UNL     1      -4.770 -19.211   0.510  1.00  0.00    -0.082 NA
ENDROOT
BRANCH   1  11
HETATM   11  C   UNL     1      -3.137 -14.561   1.332  1.00  0.00     0.058 C 
BRANCH  11  12
HETATM   12  C   UNL     1      -1.996 -14.243   2.297  1.00  0.00     0.006 C 
BRANCH  12  13
HETATM   13  C   UNL     1      -0.863 -15.248   2.103  1.00  0.00     0.000 C 
BRANCH  13  14
HETATM   14  C   UNL     1      -0.150 -15.019   0.770  1.00  0.00    -0.000 C 
BRANCH  14  15
HETATM   15  C   UNL     1       1.006 -16.012   0.705  1.00  0.00    -0.005 C 
HETATM   16  C   UNL     1       1.861 -15.709  -0.529  1.00  0.00     0.005 C 
ENDBRANCH  14  15
ENDBRANCH  13  14
ENDBRANCH  12  13
ENDBRANCH  11  12
ENDBRANCH   1  11
BRANCH   2  17
HETATM   17  C   UNL     1      -3.240 -16.988  -0.455  1.00  0.00    -0.021 A 
HETATM   18  C   UNL     1      -3.683 -16.348  -1.535  1.00  0.00     0.012 A 
HETATM   19  C   UNL     1      -2.903 -16.484  -2.839  1.00  0.00     0.001 A 
HETATM   20  C   UNL     1      -1.819 -17.242  -2.887  1.00  0.00     0.000 A 
HETATM   21  C   UNL     1      -1.331 -17.972  -1.650  1.00  0.00     0.001 A 
HETATM   22  C   UNL     1      -1.997 -17.855  -0.522  1.00  0.00     0.012 A 
ENDBRANCH   2  17
TORSDOF 6
