MODEL 1
REMARK VINA RESULT:   -16.679      0.000      0.000
REMARK INTER + INTRA:         -21.847
REMARK INTER:                 -20.579
REMARK INTRA:                  -1.268
REMARK UNBOUND:                -1.268
REMARK  4 active torsions:
REMARK  status: ('A' for Active; 'I' for Inactive)
REMARK    1  A    between atoms: C_6  and  C_19 
REMARK    2  A    between atoms: C_7  and  C_26 
REMARK       I    between atoms: C_7  and  N_24 
REMARK    3  A    between atoms: C_13  and  C_14 
REMARK    4  A    between atoms: C_30  and  C_31 
ROOT
HETATM    1  C   UNL     1       0.150   7.961 -10.451  1.00  0.00     0.005 A 
HETATM    2  C   UNL     1      -0.514   9.200 -10.258  1.00  0.00     0.033 A 
HETATM    3  C   UNL     1      -0.236   9.981  -9.086  1.00  0.00     0.075 A 
HETATM    4  C   UNL     1       0.694   9.491  -8.119  1.00  0.00     0.060 A 
HETATM    5  C   UNL     1       1.312   8.216  -8.307  1.00  0.00     0.131 A 
HETATM    6  C   UNL     1       0.742  10.531  -7.053  1.00  0.00     0.077 A 
HETATM    7  C   UNL     1      -1.566  12.067  -9.175  1.00  0.00     0.279 C 
HETATM    8  F   UNL     1       2.210   7.762  -7.419  1.00  0.00    -0.205 F 
HETATM    9  C   UNL     1       1.024   7.462  -9.461  1.00  0.00     0.043 A 
HETATM   10  N   UNL     1      -0.027  11.506  -7.426  1.00  0.00    -0.289 N 
ATOM     11  HN  UNL     1      -0.138  12.377  -6.906  1.00  0.00     0.188 HD
HETATM   12  N   UNL     1      -0.673  11.224  -8.604  1.00  0.00    -0.218 N 
HETATM   13  O   UNL     1      -2.144  11.776 -10.213  1.00  0.00    -0.265 OA
ENDROOT
BRANCH   7  14
HETATM   14  C   UNL     1      -1.905  13.352  -8.468  1.00  0.00     0.070 A 
HETATM   15  C   UNL     1      -2.781  13.302  -7.310  1.00  0.00     0.050 A 
HETATM   16 CL   UNL     1      -3.430  11.781  -6.793  1.00  0.00    -0.083 Cl
HETATM   17  C   UNL     1      -3.092  14.471  -6.604  1.00  0.00     0.025 A 
HETATM   18  C   UNL     1      -2.566  15.728  -7.017  1.00  0.00     0.003 A 
HETATM   19  C   UNL     1      -1.670  15.804  -8.120  1.00  0.00     0.017 A 
HETATM   20  C   UNL     1      -1.301  14.611  -8.841  1.00  0.00     0.065 A 
BRANCH  20  21
HETATM   21  C   UNL     1      -0.272  14.694  -9.989  1.00  0.00     0.418 C 
HETATM   22  F   UNL     1      -0.870  14.407 -11.155  1.00  0.00    -0.166 F 
HETATM   23  F   UNL     1       0.753  13.797  -9.776  1.00  0.00    -0.166 F 
HETATM   24  F   UNL     1       0.267  15.953 -10.035  1.00  0.00    -0.166 F 
ENDBRANCH  20  21
ENDBRANCH   7  14
BRANCH   6  25
HETATM   25  C   UNL     1       1.519  10.528  -5.816  1.00  0.00     0.032 A 
HETATM   26  C   UNL     1       0.830  10.674  -4.553  1.00  0.00     0.018 A 
HETATM   27  C   UNL     1       1.570  10.725  -3.384  1.00  0.00     0.019 A 
HETATM   28  C   UNL     1       3.007  10.643  -3.449  1.00  0.00     0.043 A 
HETATM   29  C   UNL     1       3.661  10.508  -4.710  1.00  0.00     0.061 A 
HETATM   30  C   UNL     1       2.940  10.463  -5.856  1.00  0.00     0.130 A 
HETATM   31  F   UNL     1       3.580  10.355  -7.047  1.00  0.00    -0.205 F 
BRANCH  28  32
HETATM   32  C   UNL     1       3.802  10.697  -2.251  1.00  0.00     0.209 C 
HETATM   33  O   UNL     1       3.313  11.036  -1.187  1.00  0.00    -0.644 OA
HETATM   34  O   UNL     1       5.112  10.440  -2.325  1.00  0.00    -0.644 OA
ENDBRANCH  28  32
ENDBRANCH   6  25
TORSDOF 4
ENDMDL
MODEL 2
REMARK VINA RESULT:   -15.634      1.982      2.457
REMARK INTER + INTRA:         -20.558
REMARK INTER:                 -19.359
REMARK INTRA:                  -1.199
REMARK UNBOUND:                -1.268
REMARK  4 active torsions:
REMARK  status: ('A' for Active; 'I' for Inactive)
REMARK    1  A    between atoms: C_6  and  C_19 
REMARK    2  A    between atoms: C_7  and  C_26 
REMARK       I    between atoms: C_7  and  N_24 
REMARK    3  A    between atoms: C_13  and  C_14 
REMARK    4  A    between atoms: C_30  and  C_31 
ROOT
HETATM    1  C   UNL     1       0.010   7.811 -10.373  1.00  0.00     0.005 A 
HETATM    2  C   UNL     1      -0.545   9.111 -10.257  1.00  0.00     0.033 A 
HETATM    3  C   UNL     1      -0.193   9.937  -9.137  1.00  0.00     0.075 A 
HETATM    4  C   UNL     1       0.699   9.432  -8.143  1.00  0.00     0.060 A 
HETATM    5  C   UNL     1       1.206   8.099  -8.253  1.00  0.00     0.131 A 
HETATM    6  C   UNL     1       0.843  10.528  -7.145  1.00  0.00     0.077 A 
HETATM    7  C   UNL     1      -1.343  12.119  -9.354  1.00  0.00     0.279 C 
HETATM    8  F   UNL     1       2.068   7.627  -7.339  1.00  0.00    -0.205 F 
HETATM    9  C   UNL     1       0.847   7.302  -9.356  1.00  0.00     0.043 A 
HETATM   10  N   UNL     1       0.156  11.539  -7.576  1.00  0.00    -0.289 N 
ATOM     11  HN  UNL     1       0.123  12.448  -7.112  1.00  0.00     0.188 HD
HETATM   12  N   UNL     1      -0.520  11.240  -8.733  1.00  0.00    -0.218 N 
HETATM   13  O   UNL     1      -1.951  11.814 -10.370  1.00  0.00    -0.265 OA
ENDROOT
BRANCH   7  14
HETATM   14  C   UNL     1      -1.566  13.470  -8.728  1.00  0.00     0.070 A 
HETATM   15  C   UNL     1      -0.900  14.625  -9.304  1.00  0.00     0.050 A 
HETATM   16 CL   UNL     1       0.146  14.418 -10.670  1.00  0.00    -0.083 Cl
HETATM   17  C   UNL     1      -1.110  15.904  -8.773  1.00  0.00     0.025 A 
HETATM   18  C   UNL     1      -1.967  16.090  -7.650  1.00  0.00     0.003 A 
HETATM   19  C   UNL     1      -2.668  14.985  -7.091  1.00  0.00     0.017 A 
HETATM   20  C   UNL     1      -2.502  13.663  -7.644  1.00  0.00     0.065 A 
BRANCH  20  21
HETATM   21  C   UNL     1      -3.322  12.485  -7.076  1.00  0.00     0.418 C 
HETATM   22  F   UNL     1      -4.051  11.927  -8.055  1.00  0.00    -0.166 F 
HETATM   23  F   UNL     1      -4.168  12.929  -6.082  1.00  0.00    -0.166 F 
HETATM   24  F   UNL     1      -2.477  11.554  -6.531  1.00  0.00    -0.166 F 
ENDBRANCH  20  21
ENDBRANCH   7  14
BRANCH   6  25
HETATM   25  C   UNL     1       1.625  10.536  -5.911  1.00  0.00     0.032 A 
HETATM   26  C   UNL     1       0.955  10.784  -4.654  1.00  0.00     0.018 A 
HETATM   27  C   UNL     1       1.704  10.845  -3.492  1.00  0.00     0.019 A 
HETATM   28  C   UNL     1       3.133  10.672  -3.558  1.00  0.00     0.043 A 
HETATM   29  C   UNL     1       3.770  10.438  -4.813  1.00  0.00     0.061 A 
HETATM   30  C   UNL     1       3.040  10.382  -5.953  1.00  0.00     0.130 A 
HETATM   31  F   UNL     1       3.665  10.179  -7.139  1.00  0.00    -0.205 F 
BRANCH  28  32
HETATM   32  C   UNL     1       3.937  10.734  -2.366  1.00  0.00     0.209 C 
HETATM   33  O   UNL     1       5.131  10.486  -2.400  1.00  0.00    -0.644 OA
HETATM   34  O   UNL     1       3.349  10.997  -1.195  1.00  0.00    -0.644 OA
ENDBRANCH  28  32
ENDBRANCH   6  25
TORSDOF 4
ENDMDL
