REMARK  6 active torsions:
REMARK  status: ('A' for Active; 'I' for Inactive)
REMARK    1  A    between atoms: S_2  and  C_3 
REMARK    2  A    between atoms: C_3  and  C_4 
REMARK    3  A    between atoms: C_6  and  O_7 
REMARK    4  A    between atoms: C_8  and  O_9 
REMARK    5  A    between atoms: C_10  and  N_11 
REMARK    6  A    between atoms: C_16  and  N_17 
ROOT
HETATM    1  N   UNL     1       1.037  -0.101  -1.492  1.00  0.00    -0.297 N 
HETATM    2  C   UNL     1       1.444   0.369  -2.700  1.00  0.00     0.188 A 
HETATM    3  N   UNL     1       0.658  -0.042  -3.734  1.00  0.00    -0.346 N 
ATOM      4  HN  UNL     1       0.754   0.165  -4.728  1.00  0.00     0.167 HD
HETATM    5  C   UNL     1      -0.277  -0.790  -3.117  1.00  0.00     0.122 A 
HETATM    6  C   UNL     1      -1.370  -1.459  -3.655  1.00  0.00     0.131 A 
HETATM    7  N   UNL     1      -2.190  -2.130  -2.791  1.00  0.00    -0.337 N 
ATOM      8  HN  UNL     1      -2.998  -2.632  -3.158  1.00  0.00     0.168 HD
HETATM    9  C   UNL     1      -1.948  -2.142  -1.440  1.00  0.00     0.183 A 
HETATM   10  N   UNL     1      -0.871  -1.478  -0.923  1.00  0.00    -0.336 N 
ATOM     11  HN  UNL     1      -0.686  -1.478   0.080  1.00  0.00     0.168 HD
HETATM   12  C   UNL     1      -0.057  -0.819  -1.783  1.00  0.00     0.142 A 
ENDROOT
BRANCH   1  13
HETATM   13  C   UNL     1       1.604   0.224  -0.181  1.00  0.00     0.262 C 
HETATM   14  O   UNL     1       1.592  -0.926   0.641  1.00  0.00    -0.355 OA
HETATM   15  C   UNL     1       1.015  -0.562   1.873  1.00  0.00     0.165 C 
HETATM   16  C   UNL     1       0.105   0.633   1.624  1.00  0.00     0.180 C 
HETATM   17  C   UNL     1       0.805   1.346   0.490  1.00  0.00     0.198 C 
BRANCH  15  18
HETATM   18  C   UNL     1       0.271  -1.767   2.464  1.00  0.00     0.108 C 
BRANCH  18  19
HETATM   19  S   UNL     1      -0.224  -1.457   4.201  1.00  0.00    -0.171 SA
HETATM   20  C   UNL     1      -2.015  -1.353   3.882  1.00  0.00     0.089 C 
ENDBRANCH  18  19
ENDBRANCH  15  18
BRANCH  16  21
HETATM   21  O   UNL     1      -0.006   1.433   2.772  1.00  0.00    -0.390 OA
HETATM   22  H   UNL     1      -0.751   2.067   2.601  1.00  0.00     0.210 HD
ENDBRANCH  16  21
BRANCH  17  23
HETATM   23  O   UNL     1       1.690   2.327   0.975  1.00  0.00    -0.388 OA
HETATM   24  H   UNL     1       1.160   3.158   1.092  1.00  0.00     0.210 HD
ENDBRANCH  17  23
ENDBRANCH   1  13
BRANCH   6  25
HETATM   25  N   UNL     1      -1.642  -1.451  -5.056  1.00  0.00    -0.383 N 
HETATM   26  H   UNL     1      -2.472  -1.961  -5.432  1.00  0.00     0.157 HD
HETATM   27  H   UNL     1      -1.021  -0.940  -5.722  1.00  0.00     0.157 HD
ENDBRANCH   6  25
TORSDOF 6
