MODEL 1
REMARK VINA RESULT:    -9.074      0.000      0.000
REMARK INTER + INTRA:         -17.611
REMARK INTER:                 -15.970
REMARK INTRA:                  -1.641
REMARK UNBOUND:                -1.641
REMARK  14 active torsions:
REMARK  status: ('A' for Active; 'I' for Inactive)
REMARK       I    between atoms: C_3  and  N_26 
REMARK    1  A    between atoms: C_3  and  O_32 
REMARK    2  A    between atoms: C_4  and  O_32 
REMARK    3  A    between atoms: C_5  and  N_26 
REMARK    4  A    between atoms: C_5  and  C_6 
REMARK    5  A    between atoms: C_5  and  C_7 
REMARK    6  A    between atoms: C_6  and  O_34 
REMARK    7  A    between atoms: C_6  and  C_14 
REMARK    8  A    between atoms: C_7  and  C_8 
REMARK    9  A    between atoms: C_14  and  N_28 
REMARK   10  A    between atoms: C_15  and  N_28 
REMARK   11  A    between atoms: C_15  and  C_16 
REMARK   12  A    between atoms: C_17  and  S_39 
REMARK   13  A    between atoms: C_20  and  N_29 
REMARK   14  A    between atoms: N_28  and  S_39 
ROOT
HETATM    1  C   UNL     1      11.090  16.292 -10.442  1.00  0.00     0.160 C 
ENDROOT
BRANCH   1   2
HETATM    2  C   UNL     1      12.374  16.970  -9.940  1.00  0.00     0.121 C 
BRANCH   2   3
HETATM    3  N   UNL     1      13.243  17.250 -11.077  1.00  0.00    -0.329 N 
HETATM    4  C   UNL     1      14.480  16.769 -11.151  1.00  0.00     0.361 C 
HETATM    5  O   UNL     1      15.051  16.100 -10.299  1.00  0.00    -0.238 OA
ATOM      6  HN  UNL     1      12.891  17.832 -11.837  1.00  0.00     0.165 HD
BRANCH   4   7
HETATM    7  O   UNL     1      15.045  17.162 -12.332  1.00  0.00    -0.296 OA
BRANCH   7   8
HETATM    8  C   UNL     1      15.139  18.560 -12.467  1.00  0.00     0.159 C 
HETATM    9  C   UNL     1      16.296  19.149 -11.631  1.00  0.00     0.061 C 
HETATM   10  C   UNL     1      17.476  18.611 -12.413  1.00  0.00     0.170 C 
HETATM   11  O   UNL     1      17.084  18.657 -13.801  1.00  0.00    -0.389 OA
HETATM   12  C   UNL     1      15.662  18.903 -13.878  1.00  0.00     0.200 C 
ENDBRANCH   7   8
ENDBRANCH   4   7
ENDBRANCH   2   3
BRANCH   2  13
HETATM   13  C   UNL     1      12.128  18.258  -9.141  1.00  0.00     0.066 C 
BRANCH  13  14
HETATM   14  C   UNL     1      13.060  18.366  -7.949  1.00  0.00    -0.056 A 
HETATM   15  C   UNL     1      13.838  17.289  -7.552  1.00  0.00     0.007 A 
HETATM   16  C   UNL     1      14.677  17.388  -6.451  1.00  0.00     0.001 A 
HETATM   17  C   UNL     1      14.747  18.561  -5.738  1.00  0.00     0.000 A 
HETATM   18  C   UNL     1      13.988  19.642  -6.122  1.00  0.00     0.001 A 
HETATM   19  C   UNL     1      13.147  19.542  -7.220  1.00  0.00     0.007 A 
ENDBRANCH  13  14
ENDBRANCH   2  13
ENDBRANCH   1   2
BRANCH   1  20
HETATM   20  O   UNL     1       9.942  16.785  -9.751  1.00  0.00    -0.392 OA
ATOM     21  HO  UNL     1      10.097  16.830  -8.815  1.00  0.00     0.210 HD
ENDBRANCH   1  20
BRANCH   1  22
HETATM   22  C   UNL     1      11.136  14.795 -10.207  1.00  0.00     0.169 C 
BRANCH  22  23
HETATM   23  N   UNL     1      10.884  13.946 -11.377  1.00  0.00    -0.304 N 
BRANCH  23  24
HETATM   24  C   UNL     1       9.960  14.518 -12.367  1.00  0.00     0.139 C 
BRANCH  24  25
HETATM   25  C   UNL     1      10.577  14.845 -13.711  1.00  0.00    -0.004 C 
HETATM   26  C   UNL     1      10.043  14.042 -14.854  1.00  0.00     0.011 C 
HETATM   27  C   UNL     1      12.099  14.637 -13.566  1.00  0.00     0.011 C 
ENDBRANCH  24  25
ENDBRANCH  23  24
BRANCH  23  28
HETATM   28  S   UNL     1      10.843  12.330 -11.164  1.00  0.00     0.260 S 
HETATM   29  O   UNL     1      12.166  11.897 -10.847  1.00  0.00    -0.200 OA
HETATM   30  O   UNL     1      10.200  11.803 -12.326  1.00  0.00    -0.200 OA
BRANCH  28  31
HETATM   31  C   UNL     1       9.802  12.016  -9.775  1.00  0.00     0.079 A 
HETATM   32  C   UNL     1       8.422  11.947  -9.937  1.00  0.00     0.027 A 
HETATM   33  C   UNL     1       7.619  11.695  -8.838  1.00  0.00     0.030 A 
HETATM   34  C   UNL     1       8.178  11.497  -7.567  1.00  0.00     0.025 A 
HETATM   35  C   UNL     1       9.570  11.558  -7.427  1.00  0.00     0.030 A 
HETATM   36  C   UNL     1      10.374  11.822  -8.520  1.00  0.00     0.027 A 
BRANCH  34  37
HETATM   37  N   UNL     1       7.376  11.244  -6.474  1.00  0.00    -0.399 N 
ATOM     38  HN2 UNL     1       6.993  10.311  -6.318  1.00  0.00     0.156 HD
ATOM     39  HN1 UNL     1       7.153  11.983  -5.807  1.00  0.00     0.156 HD
ENDBRANCH  34  37
ENDBRANCH  28  31
ENDBRANCH  23  28
ENDBRANCH  22  23
ENDBRANCH   1  22
TORSDOF 14
ENDMDL
MODEL 2
REMARK VINA RESULT:    -8.825      2.196      9.047
REMARK INTER + INTRA:         -17.173
REMARK INTER:                 -15.308
REMARK INTRA:                  -1.865
REMARK UNBOUND:                -1.641
REMARK  14 active torsions:
REMARK  status: ('A' for Active; 'I' for Inactive)
REMARK       I    between atoms: C_3  and  N_26 
REMARK    1  A    between atoms: C_3  and  O_32 
REMARK    2  A    between atoms: C_4  and  O_32 
REMARK    3  A    between atoms: C_5  and  N_26 
REMARK    4  A    between atoms: C_5  and  C_6 
REMARK    5  A    between atoms: C_5  and  C_7 
REMARK    6  A    between atoms: C_6  and  O_34 
REMARK    7  A    between atoms: C_6  and  C_14 
REMARK    8  A    between atoms: C_7  and  C_8 
REMARK    9  A    between atoms: C_14  and  N_28 
REMARK   10  A    between atoms: C_15  and  N_28 
REMARK   11  A    between atoms: C_15  and  C_16 
REMARK   12  A    between atoms: C_17  and  S_39 
REMARK   13  A    between atoms: C_20  and  N_29 
REMARK   14  A    between atoms: N_28  and  S_39 
ROOT
HETATM    1  C   UNL     1      11.156  16.881 -10.074  1.00  0.00     0.160 C 
ENDROOT
BRANCH   1   2
HETATM    2  C   UNL     1      11.236  15.588 -10.900  1.00  0.00     0.121 C 
BRANCH   2   3
HETATM    3  N   UNL     1      10.268  14.629 -10.383  1.00  0.00    -0.329 N 
HETATM    4  C   UNL     1      10.623  13.403 -10.013  1.00  0.00     0.361 C 
HETATM    5  O   UNL     1      11.743  12.915 -10.094  1.00  0.00    -0.238 OA
ATOM      6  HN  UNL     1       9.290  14.907 -10.304  1.00  0.00     0.165 HD
BRANCH   4   7
HETATM    7  O   UNL     1       9.523  12.740  -9.541  1.00  0.00    -0.296 OA
BRANCH   7   8
HETATM    8  C   UNL     1       9.844  11.630  -8.737  1.00  0.00     0.159 C 
HETATM    9  C   UNL     1       8.999  11.583  -7.445  1.00  0.00     0.061 C 
HETATM   10  C   UNL     1       7.646  11.246  -8.038  1.00  0.00     0.170 C 
HETATM   11  O   UNL     1       7.908  10.338  -9.128  1.00  0.00    -0.389 OA
HETATM   12  C   UNL     1       9.325  10.344  -9.412  1.00  0.00     0.200 C 
ENDBRANCH   7   8
ENDBRANCH   4   7
ENDBRANCH   2   3
BRANCH   2  13
HETATM   13  C   UNL     1      11.014  15.795 -12.406  1.00  0.00     0.066 C 
BRANCH  13  14
HETATM   14  C   UNL     1      11.232  14.513 -13.187  1.00  0.00    -0.056 A 
HETATM   15  C   UNL     1      10.165  13.840 -13.764  1.00  0.00     0.007 A 
HETATM   16  C   UNL     1      10.368  12.659 -14.464  1.00  0.00     0.001 A 
HETATM   17  C   UNL     1      11.635  12.141 -14.594  1.00  0.00     0.000 A 
HETATM   18  C   UNL     1      12.705  12.799 -14.034  1.00  0.00     0.001 A 
HETATM   19  C   UNL     1      12.502  13.978 -13.332  1.00  0.00     0.007 A 
ENDBRANCH  13  14
ENDBRANCH   2  13
ENDBRANCH   1   2
BRANCH   1  20
HETATM   20  O   UNL     1       9.931  17.574 -10.316  1.00  0.00    -0.392 OA
ATOM     21  HO  UNL     1       9.224  16.968 -10.503  1.00  0.00     0.210 HD
ENDBRANCH   1  20
BRANCH   1  22
HETATM   22  C   UNL     1      12.278  17.832 -10.440  1.00  0.00     0.169 C 
BRANCH  22  23
HETATM   23  N   UNL     1      13.563  17.610  -9.767  1.00  0.00    -0.304 N 
BRANCH  23  24
HETATM   24  C   UNL     1      13.789  18.443  -8.577  1.00  0.00     0.139 C 
BRANCH  24  25
HETATM   25  C   UNL     1      13.416  17.797  -7.258  1.00  0.00    -0.004 C 
HETATM   26  C   UNL     1      12.568  18.646  -6.366  1.00  0.00     0.011 C 
HETATM   27  C   UNL     1      14.738  17.422  -6.556  1.00  0.00     0.011 C 
ENDBRANCH  24  25
ENDBRANCH  23  24
BRANCH  23  28
HETATM   28  S   UNL     1      14.863  17.251 -10.684  1.00  0.00     0.260 S 
HETATM   29  O   UNL     1      14.391  16.779 -11.946  1.00  0.00    -0.200 OA
HETATM   30  O   UNL     1      15.677  16.393  -9.882  1.00  0.00    -0.200 OA
BRANCH  28  31
HETATM   31  C   UNL     1      15.748  18.755 -10.943  1.00  0.00     0.079 A 
HETATM   32  C   UNL     1      16.952  18.980 -10.285  1.00  0.00     0.027 A 
HETATM   33  C   UNL     1      17.636  20.164 -10.502  1.00  0.00     0.030 A 
HETATM   34  C   UNL     1      17.138  21.133 -11.385  1.00  0.00     0.025 A 
HETATM   35  C   UNL     1      15.930  20.882 -12.047  1.00  0.00     0.030 A 
HETATM   36  C   UNL     1      15.238  19.706 -11.823  1.00  0.00     0.027 A 
BRANCH  34  37
HETATM   37  N   UNL     1      17.822  22.310 -11.601  1.00  0.00    -0.399 N 
ATOM     38  HN2 UNL     1      18.804  22.394 -11.336  1.00  0.00     0.156 HD
ATOM     39  HN1 UNL     1      17.359  23.113 -12.027  1.00  0.00     0.156 HD
ENDBRANCH  34  37
ENDBRANCH  28  31
ENDBRANCH  23  28
ENDBRANCH  22  23
ENDBRANCH   1  22
TORSDOF 14
ENDMDL
MODEL 3
REMARK VINA RESULT:    -8.722      2.893      8.850
REMARK INTER + INTRA:         -16.992
REMARK INTER:                 -14.224
REMARK INTRA:                  -2.768
REMARK UNBOUND:                -1.641
REMARK  14 active torsions:
REMARK  status: ('A' for Active; 'I' for Inactive)
REMARK       I    between atoms: C_3  and  N_26 
REMARK    1  A    between atoms: C_3  and  O_32 
REMARK    2  A    between atoms: C_4  and  O_32 
REMARK    3  A    between atoms: C_5  and  N_26 
REMARK    4  A    between atoms: C_5  and  C_6 
REMARK    5  A    between atoms: C_5  and  C_7 
REMARK    6  A    between atoms: C_6  and  O_34 
REMARK    7  A    between atoms: C_6  and  C_14 
REMARK    8  A    between atoms: C_7  and  C_8 
REMARK    9  A    between atoms: C_14  and  N_28 
REMARK   10  A    between atoms: C_15  and  N_28 
REMARK   11  A    between atoms: C_15  and  C_16 
REMARK   12  A    between atoms: C_17  and  S_39 
REMARK   13  A    between atoms: C_20  and  N_29 
REMARK   14  A    between atoms: N_28  and  S_39 
ROOT
HETATM    1  C   UNL     1      13.501  17.889 -11.129  1.00  0.00     0.160 C 
ENDROOT
BRANCH   1   2
HETATM    2  C   UNL     1      12.860  17.073  -9.996  1.00  0.00     0.121 C 
BRANCH   2   3
HETATM    3  N   UNL     1      12.274  15.860 -10.552  1.00  0.00    -0.329 N 
HETATM    4  C   UNL     1      11.060  15.444 -10.206  1.00  0.00     0.361 C 
HETATM    5  O   UNL     1      10.322  15.965  -9.379  1.00  0.00    -0.238 OA
ATOM      6  HN  UNL     1      12.811  15.315 -11.227  1.00  0.00     0.165 HD
BRANCH   4   7
HETATM    7  O   UNL     1      10.759  14.307 -10.904  1.00  0.00    -0.296 OA
BRANCH   7   8
HETATM    8  C   UNL     1      11.467  13.175 -10.457  1.00  0.00     0.159 C 
HETATM    9  C   UNL     1      10.675  12.369  -9.406  1.00  0.00     0.061 C 
HETATM   10  C   UNL     1       9.577  11.809 -10.288  1.00  0.00     0.170 C 
HETATM   11  O   UNL     1      10.203  11.511 -11.554  1.00  0.00    -0.389 OA
HETATM   12  C   UNL     1      11.511  12.123 -11.585  1.00  0.00     0.200 C 
ENDBRANCH   7   8
ENDBRANCH   4   7
ENDBRANCH   2   3
BRANCH   2  13
HETATM   13  C   UNL     1      13.832  16.712  -8.862  1.00  0.00     0.066 C 
BRANCH  13  14
HETATM   14  C   UNL     1      13.764  17.714  -7.725  1.00  0.00    -0.056 A 
HETATM   15  C   UNL     1      12.693  18.588  -7.607  1.00  0.00     0.007 A 
HETATM   16  C   UNL     1      12.645  19.514  -6.575  1.00  0.00     0.001 A 
HETATM   17  C   UNL     1      13.663  19.575  -5.652  1.00  0.00     0.000 A 
HETATM   18  C   UNL     1      14.728  18.712  -5.750  1.00  0.00     0.001 A 
HETATM   19  C   UNL     1      14.779  17.789  -6.784  1.00  0.00     0.007 A 
ENDBRANCH  13  14
ENDBRANCH   2  13
ENDBRANCH   1   2
BRANCH   1  20
HETATM   20  O   UNL     1      12.901  17.584 -12.389  1.00  0.00    -0.392 OA
ATOM     21  HO  UNL     1      12.337  16.822 -12.326  1.00  0.00     0.210 HD
ENDBRANCH   1  20
BRANCH   1  22
HETATM   22  C   UNL     1      14.979  17.576 -11.259  1.00  0.00     0.169 C 
BRANCH  22  23
HETATM   23  N   UNL     1      15.818  18.632 -11.837  1.00  0.00    -0.304 N 
BRANCH  23  24
HETATM   24  C   UNL     1      15.608  19.969 -11.264  1.00  0.00     0.139 C 
BRANCH  24  25
HETATM   25  C   UNL     1      16.453  20.291 -10.048  1.00  0.00    -0.004 C 
HETATM   26  C   UNL     1      15.673  20.651  -8.824  1.00  0.00     0.011 C 
HETATM   27  C   UNL     1      17.394  21.446 -10.452  1.00  0.00     0.011 C 
ENDBRANCH  24  25
ENDBRANCH  23  24
BRANCH  23  28
HETATM   28  S   UNL     1      16.182  18.548 -13.424  1.00  0.00     0.260 S 
HETATM   29  O   UNL     1      14.969  18.716 -14.159  1.00  0.00    -0.200 OA
HETATM   30  O   UNL     1      16.930  17.342 -13.586  1.00  0.00    -0.200 OA
BRANCH  28  31
HETATM   31  C   UNL     1      17.250  19.905 -13.784  1.00  0.00     0.079 A 
HETATM   32  C   UNL     1      18.615  19.803 -13.541  1.00  0.00     0.027 A 
HETATM   33  C   UNL     1      19.441  20.875 -13.834  1.00  0.00     0.030 A 
HETATM   34  C   UNL     1      18.921  22.057 -14.382  1.00  0.00     0.025 A 
HETATM   35  C   UNL     1      17.545  22.135 -14.630  1.00  0.00     0.030 A 
HETATM   36  C   UNL     1      16.716  21.071 -14.328  1.00  0.00     0.027 A 
BRANCH  34  37
HETATM   37  N   UNL     1      19.745  23.123 -14.674  1.00  0.00    -0.399 N 
ATOM     38  HN2 UNL     1      19.415  23.886 -15.266  1.00  0.00     0.156 HD
ATOM     39  HN1 UNL     1      20.696  23.165 -14.306  1.00  0.00     0.156 HD
ENDBRANCH  34  37
ENDBRANCH  28  31
ENDBRANCH  23  28
ENDBRANCH  22  23
ENDBRANCH   1  22
TORSDOF 14
ENDMDL
MODEL 4
REMARK VINA RESULT:    -8.715      3.062      8.943
REMARK INTER + INTRA:         -16.980
REMARK INTER:                 -14.334
REMARK INTRA:                  -2.646
REMARK UNBOUND:                -1.641
REMARK  14 active torsions:
REMARK  status: ('A' for Active; 'I' for Inactive)
REMARK       I    between atoms: C_3  and  N_26 
REMARK    1  A    between atoms: C_3  and  O_32 
REMARK    2  A    between atoms: C_4  and  O_32 
REMARK    3  A    between atoms: C_5  and  N_26 
REMARK    4  A    between atoms: C_5  and  C_6 
REMARK    5  A    between atoms: C_5  and  C_7 
REMARK    6  A    between atoms: C_6  and  O_34 
REMARK    7  A    between atoms: C_6  and  C_14 
REMARK    8  A    between atoms: C_7  and  C_8 
REMARK    9  A    between atoms: C_14  and  N_28 
REMARK   10  A    between atoms: C_15  and  N_28 
REMARK   11  A    between atoms: C_15  and  C_16 
REMARK   12  A    between atoms: C_17  and  S_39 
REMARK   13  A    between atoms: C_20  and  N_29 
REMARK   14  A    between atoms: N_28  and  S_39 
ROOT
HETATM    1  C   UNL     1      13.914  18.179 -11.174  1.00  0.00     0.160 C 
ENDROOT
BRANCH   1   2
HETATM    2  C   UNL     1      13.068  17.373 -10.176  1.00  0.00     0.121 C 
BRANCH   2   3
HETATM    3  N   UNL     1      12.437  16.259 -10.874  1.00  0.00    -0.329 N 
HETATM    4  C   UNL     1      11.132  16.026 -10.788  1.00  0.00     0.361 C 
HETATM    5  O   UNL     1      10.326  16.649 -10.109  1.00  0.00    -0.238 OA
ATOM      6  HN  UNL     1      13.015  15.642 -11.445  1.00  0.00     0.165 HD
BRANCH   4   7
HETATM    7  O   UNL     1      10.816  14.946 -11.566  1.00  0.00    -0.296 OA
BRANCH   7   8
HETATM    8  C   UNL     1      11.661  13.840 -11.353  1.00  0.00     0.159 C 
HETATM    9  C   UNL     1      11.197  12.974 -10.162  1.00  0.00     0.061 C 
HETATM   10  C   UNL     1       9.934  12.381 -10.754  1.00  0.00     0.170 C 
HETATM   11  O   UNL     1      10.227  12.142 -12.147  1.00  0.00    -0.389 OA
HETATM   12  C   UNL     1      11.458  12.817 -12.490  1.00  0.00     0.200 C 
ENDBRANCH   7   8
ENDBRANCH   4   7
ENDBRANCH   2   3
BRANCH   2  13
HETATM   13  C   UNL     1      13.859  16.851  -8.967  1.00  0.00     0.066 C 
BRANCH  13  14
HETATM   14  C   UNL     1      13.774  17.802  -7.788  1.00  0.00    -0.056 A 
HETATM   15  C   UNL     1      12.699  18.668  -7.647  1.00  0.00     0.007 A 
HETATM   16  C   UNL     1      12.635  19.548  -6.576  1.00  0.00     0.001 A 
HETATM   17  C   UNL     1      13.639  19.570  -5.637  1.00  0.00     0.000 A 
HETATM   18  C   UNL     1      14.708  18.712  -5.758  1.00  0.00     0.001 A 
HETATM   19  C   UNL     1      14.775  17.836  -6.830  1.00  0.00     0.007 A 
ENDBRANCH  13  14
ENDBRANCH   2  13
ENDBRANCH   1   2
BRANCH   1  20
HETATM   20  O   UNL     1      13.563  17.864 -12.522  1.00  0.00    -0.392 OA
ATOM     21  HO  UNL     1      12.784  17.323 -12.558  1.00  0.00     0.210 HD
ENDBRANCH   1  20
BRANCH   1  22
HETATM   22  C   UNL     1      15.389  17.863 -11.019  1.00  0.00     0.169 C 
BRANCH  22  23
HETATM   23  N   UNL     1      16.325  18.913 -11.436  1.00  0.00    -0.304 N 
BRANCH  23  24
HETATM   24  C   UNL     1      15.944  20.275 -11.034  1.00  0.00     0.139 C 
BRANCH  24  25
HETATM   25  C   UNL     1      16.540  20.752  -9.726  1.00  0.00    -0.004 C 
HETATM   26  C   UNL     1      15.557  20.908  -8.611  1.00  0.00     0.011 C 
HETATM   27  C   UNL     1      17.245  22.094 -10.021  1.00  0.00     0.011 C 
ENDBRANCH  24  25
ENDBRANCH  23  24
BRANCH  23  28
HETATM   28  S   UNL     1      17.089  18.743 -12.866  1.00  0.00     0.260 S 
HETATM   29  O   UNL     1      16.111  18.391 -13.845  1.00  0.00    -0.200 OA
HETATM   30  O   UNL     1      18.177  17.850 -12.620  1.00  0.00    -0.200 OA
BRANCH  28  31
HETATM   31  C   UNL     1      17.762  20.319 -13.286  1.00  0.00     0.079 A 
HETATM   32  C   UNL     1      17.044  21.191 -14.097  1.00  0.00     0.027 A 
HETATM   33  C   UNL     1      17.583  22.426 -14.414  1.00  0.00     0.030 A 
HETATM   34  C   UNL     1      18.837  22.814 -13.918  1.00  0.00     0.025 A 
HETATM   35  C   UNL     1      19.538  21.926 -13.093  1.00  0.00     0.030 A 
HETATM   36  C   UNL     1      19.008  20.687 -12.786  1.00  0.00     0.027 A 
BRANCH  34  37
HETATM   37  N   UNL     1      19.372  24.045 -14.233  1.00  0.00    -0.399 N 
ATOM     38  HN2 UNL     1      19.048  24.887 -13.757  1.00  0.00     0.156 HD
ATOM     39  HN1 UNL     1      20.096  24.134 -14.946  1.00  0.00     0.156 HD
ENDBRANCH  34  37
ENDBRANCH  28  31
ENDBRANCH  23  28
ENDBRANCH  22  23
ENDBRANCH   1  22
TORSDOF 14
ENDMDL
MODEL 5
REMARK VINA RESULT:    -8.694      3.123      8.423
REMARK INTER + INTRA:         -16.942
REMARK INTER:                 -14.650
REMARK INTRA:                  -2.293
REMARK UNBOUND:                -1.641
REMARK  14 active torsions:
REMARK  status: ('A' for Active; 'I' for Inactive)
REMARK       I    between atoms: C_3  and  N_26 
REMARK    1  A    between atoms: C_3  and  O_32 
REMARK    2  A    between atoms: C_4  and  O_32 
REMARK    3  A    between atoms: C_5  and  N_26 
REMARK    4  A    between atoms: C_5  and  C_6 
REMARK    5  A    between atoms: C_5  and  C_7 
REMARK    6  A    between atoms: C_6  and  O_34 
REMARK    7  A    between atoms: C_6  and  C_14 
REMARK    8  A    between atoms: C_7  and  C_8 
REMARK    9  A    between atoms: C_14  and  N_28 
REMARK   10  A    between atoms: C_15  and  N_28 
REMARK   11  A    between atoms: C_15  and  C_16 
REMARK   12  A    between atoms: C_17  and  S_39 
REMARK   13  A    between atoms: C_20  and  N_29 
REMARK   14  A    between atoms: N_28  and  S_39 
ROOT
HETATM    1  C   UNL     1      13.261  18.170 -10.678  1.00  0.00     0.160 C 
ENDROOT
BRANCH   1   2
HETATM    2  C   UNL     1      12.995  16.985  -9.737  1.00  0.00     0.121 C 
BRANCH   2   3
HETATM    3  N   UNL     1      12.900  15.762 -10.525  1.00  0.00    -0.329 N 
HETATM    4  C   UNL     1      11.830  14.975 -10.473  1.00  0.00     0.361 C 
HETATM    5  O   UNL     1      10.847  15.131  -9.759  1.00  0.00    -0.238 OA
ATOM      6  HN  UNL     1      13.677  15.503 -11.133  1.00  0.00     0.165 HD
BRANCH   4   7
HETATM    7  O   UNL     1      12.002  13.926 -11.333  1.00  0.00    -0.296 OA
BRANCH   7   8
HETATM    8  C   UNL     1      11.720  14.253 -12.673  1.00  0.00     0.159 C 
HETATM    9  C   UNL     1      12.393  13.278 -13.664  1.00  0.00     0.061 C 
HETATM   10  C   UNL     1      11.572  12.033 -13.394  1.00  0.00     0.170 C 
HETATM   11  O   UNL     1      10.224  12.493 -13.160  1.00  0.00    -0.389 OA
HETATM   12  C   UNL     1      10.243  13.927 -12.978  1.00  0.00     0.200 C 
ENDBRANCH   7   8
ENDBRANCH   4   7
ENDBRANCH   2   3
BRANCH   2  13
HETATM   13  C   UNL     1      14.050  16.816  -8.634  1.00  0.00     0.066 C 
BRANCH  13  14
HETATM   14  C   UNL     1      13.867  17.831  -7.522  1.00  0.00    -0.056 A 
HETATM   15  C   UNL     1      12.680  18.538  -7.389  1.00  0.00     0.007 A 
HETATM   16  C   UNL     1      12.525  19.477  -6.381  1.00  0.00     0.001 A 
HETATM   17  C   UNL     1      13.549  19.719  -5.496  1.00  0.00     0.000 A 
HETATM   18  C   UNL     1      14.729  19.022  -5.608  1.00  0.00     0.001 A 
HETATM   19  C   UNL     1      14.887  18.086  -6.619  1.00  0.00     0.007 A 
ENDBRANCH  13  14
ENDBRANCH   2  13
ENDBRANCH   1   2
BRANCH   1  20
HETATM   20  O   UNL     1      12.042  18.688 -11.214  1.00  0.00    -0.392 OA
ATOM     21  HO  UNL     1      12.152  18.960 -12.117  1.00  0.00     0.210 HD
ENDBRANCH   1  20
BRANCH   1  22
HETATM   22  C   UNL     1      14.116  17.750 -11.857  1.00  0.00     0.169 C 
BRANCH  22  23
HETATM   23  N   UNL     1      15.345  18.522 -12.076  1.00  0.00    -0.304 N 
BRANCH  23  24
HETATM   24  C   UNL     1      15.408  19.800 -11.352  1.00  0.00     0.139 C 
BRANCH  24  25
HETATM   25  C   UNL     1      16.465  19.877 -10.270  1.00  0.00    -0.004 C 
HETATM   26  C   UNL     1      17.033  18.557  -9.857  1.00  0.00     0.011 C 
HETATM   27  C   UNL     1      15.817  20.591  -9.064  1.00  0.00     0.011 C 
ENDBRANCH  24  25
ENDBRANCH  23  24
BRANCH  23  28
HETATM   28  S   UNL     1      16.043  18.462 -13.548  1.00  0.00     0.260 S 
HETATM   29  O   UNL     1      15.001  18.449 -14.525  1.00  0.00    -0.200 OA
HETATM   30  O   UNL     1      16.960  17.369 -13.498  1.00  0.00    -0.200 OA
BRANCH  28  31
HETATM   31  C   UNL     1      16.974  19.948 -13.741  1.00  0.00     0.079 A 
HETATM   32  C   UNL     1      16.399  21.060 -14.347  1.00  0.00     0.027 A 
HETATM   33  C   UNL     1      17.142  22.219 -14.487  1.00  0.00     0.030 A 
HETATM   34  C   UNL     1      18.461  22.292 -14.016  1.00  0.00     0.025 A 
HETATM   35  C   UNL     1      19.018  21.165 -13.399  1.00  0.00     0.030 A 
HETATM   36  C   UNL     1      18.283  20.001 -13.269  1.00  0.00     0.027 A 
BRANCH  34  37
HETATM   37  N   UNL     1      19.199  23.448 -14.155  1.00  0.00    -0.399 N 
ATOM     38  HN2 UNL     1      19.658  23.869 -13.347  1.00  0.00     0.156 HD
ATOM     39  HN1 UNL     1      19.296  23.901 -15.065  1.00  0.00     0.156 HD
ENDBRANCH  34  37
ENDBRANCH  28  31
ENDBRANCH  23  28
ENDBRANCH  22  23
ENDBRANCH   1  22
TORSDOF 14
ENDMDL
MODEL 6
REMARK VINA RESULT:    -8.584      2.263      3.957
REMARK INTER + INTRA:         -16.748
REMARK INTER:                 -14.888
REMARK INTRA:                  -1.860
REMARK UNBOUND:                -1.641
REMARK  14 active torsions:
REMARK  status: ('A' for Active; 'I' for Inactive)
REMARK       I    between atoms: C_3  and  N_26 
REMARK    1  A    between atoms: C_3  and  O_32 
REMARK    2  A    between atoms: C_4  and  O_32 
REMARK    3  A    between atoms: C_5  and  N_26 
REMARK    4  A    between atoms: C_5  and  C_6 
REMARK    5  A    between atoms: C_5  and  C_7 
REMARK    6  A    between atoms: C_6  and  O_34 
REMARK    7  A    between atoms: C_6  and  C_14 
REMARK    8  A    between atoms: C_7  and  C_8 
REMARK    9  A    between atoms: C_14  and  N_28 
REMARK   10  A    between atoms: C_15  and  N_28 
REMARK   11  A    between atoms: C_15  and  C_16 
REMARK   12  A    between atoms: C_17  and  S_39 
REMARK   13  A    between atoms: C_20  and  N_29 
REMARK   14  A    between atoms: N_28  and  S_39 
ROOT
HETATM    1  C   UNL     1      11.552  17.082 -10.909  1.00  0.00     0.160 C 
ENDROOT
BRANCH   1   2
HETATM    2  C   UNL     1      12.650  17.725 -10.048  1.00  0.00     0.121 C 
BRANCH   2   3
HETATM    3  N   UNL     1      13.369  18.710 -10.846  1.00  0.00    -0.329 N 
HETATM    4  C   UNL     1      14.410  18.376 -11.602  1.00  0.00     0.361 C 
HETATM    5  O   UNL     1      14.916  17.265 -11.693  1.00  0.00    -0.238 OA
ATOM      6  HN  UNL     1      13.064  19.683 -10.824  1.00  0.00     0.165 HD
BRANCH   4   7
HETATM    7  O   UNL     1      14.863  19.487 -12.259  1.00  0.00    -0.296 OA
BRANCH   7   8
HETATM    8  C   UNL     1      16.186  19.832 -11.925  1.00  0.00     0.159 C 
HETATM    9  C   UNL     1      17.109  19.864 -13.162  1.00  0.00     0.061 C 
HETATM   10  C   UNL     1      16.559  21.092 -13.859  1.00  0.00     0.170 C 
HETATM   11  O   UNL     1      16.215  22.020 -12.809  1.00  0.00    -0.389 OA
HETATM   12  C   UNL     1      16.243  21.326 -11.542  1.00  0.00     0.200 C 
ENDBRANCH   7   8
ENDBRANCH   4   7
ENDBRANCH   2   3
BRANCH   2  13
HETATM   13  C   UNL     1      12.129  18.376  -8.758  1.00  0.00     0.066 C 
BRANCH  13  14
HETATM   14  C   UNL     1      13.162  18.328  -7.648  1.00  0.00    -0.056 A 
HETATM   15  C   UNL     1      13.992  17.227  -7.493  1.00  0.00     0.007 A 
HETATM   16  C   UNL     1      14.923  17.182  -6.466  1.00  0.00     0.001 A 
HETATM   17  C   UNL     1      15.036  18.233  -5.586  1.00  0.00     0.000 A 
HETATM   18  C   UNL     1      14.226  19.335  -5.730  1.00  0.00     0.001 A 
HETATM   19  C   UNL     1      13.292  19.380  -6.754  1.00  0.00     0.007 A 
ENDBRANCH  13  14
ENDBRANCH   2  13
ENDBRANCH   1   2
BRANCH   1  20
HETATM   20  O   UNL     1      10.265  17.247 -10.314  1.00  0.00    -0.392 OA
ATOM     21  HO  UNL     1      10.210  18.065  -9.834  1.00  0.00     0.210 HD
ENDBRANCH   1  20
BRANCH   1  22
HETATM   22  C   UNL     1      11.779  15.590 -11.057  1.00  0.00     0.169 C 
BRANCH  22  23
HETATM   23  N   UNL     1      10.890  14.888 -11.990  1.00  0.00    -0.304 N 
BRANCH  23  24
HETATM   24  C   UNL     1      10.182  13.733 -11.417  1.00  0.00     0.139 C 
BRANCH  24  25
HETATM   25  C   UNL     1      10.888  13.052 -10.263  1.00  0.00    -0.004 C 
HETATM   26  C   UNL     1      11.464  11.711 -10.588  1.00  0.00     0.011 C 
HETATM   27  C   UNL     1       9.860  12.938  -9.117  1.00  0.00     0.011 C 
ENDBRANCH  24  25
ENDBRANCH  23  24
BRANCH  23  28
HETATM   28  S   UNL     1      11.336  14.788 -13.555  1.00  0.00     0.260 S 
HETATM   29  O   UNL     1      12.495  15.603 -13.732  1.00  0.00    -0.200 OA
HETATM   30  O   UNL     1      10.160  15.081 -14.311  1.00  0.00    -0.200 OA
BRANCH  28  31
HETATM   31  C   UNL     1      11.778  13.108 -13.864  1.00  0.00     0.079 A 
HETATM   32  C   UNL     1      13.103  12.703 -13.752  1.00  0.00     0.027 A 
HETATM   33  C   UNL     1      13.433  11.380 -13.993  1.00  0.00     0.030 A 
HETATM   34  C   UNL     1      12.448  10.442 -14.336  1.00  0.00     0.025 A 
HETATM   35  C   UNL     1      11.118  10.869 -14.432  1.00  0.00     0.030 A 
HETATM   36  C   UNL     1      10.787  12.191 -14.204  1.00  0.00     0.027 A 
BRANCH  34  37
HETATM   37  N   UNL     1      12.779   9.125 -14.574  1.00  0.00    -0.399 N 
ATOM     38  HN2 UNL     1      12.432   8.647 -15.406  1.00  0.00     0.156 HD
ATOM     39  HN1 UNL     1      13.372   8.609 -13.924  1.00  0.00     0.156 HD
ENDBRANCH  34  37
ENDBRANCH  28  31
ENDBRANCH  23  28
ENDBRANCH  22  23
ENDBRANCH   1  22
TORSDOF 14
ENDMDL
MODEL 7
REMARK VINA RESULT:    -8.471      2.222      3.690
REMARK INTER + INTRA:         -16.549
REMARK INTER:                 -14.492
REMARK INTRA:                  -2.058
REMARK UNBOUND:                -1.641
REMARK  14 active torsions:
REMARK  status: ('A' for Active; 'I' for Inactive)
REMARK       I    between atoms: C_3  and  N_26 
REMARK    1  A    between atoms: C_3  and  O_32 
REMARK    2  A    between atoms: C_4  and  O_32 
REMARK    3  A    between atoms: C_5  and  N_26 
REMARK    4  A    between atoms: C_5  and  C_6 
REMARK    5  A    between atoms: C_5  and  C_7 
REMARK    6  A    between atoms: C_6  and  O_34 
REMARK    7  A    between atoms: C_6  and  C_14 
REMARK    8  A    between atoms: C_7  and  C_8 
REMARK    9  A    between atoms: C_14  and  N_28 
REMARK   10  A    between atoms: C_15  and  N_28 
REMARK   11  A    between atoms: C_15  and  C_16 
REMARK   12  A    between atoms: C_17  and  S_39 
REMARK   13  A    between atoms: C_20  and  N_29 
REMARK   14  A    between atoms: N_28  and  S_39 
ROOT
HETATM    1  C   UNL     1      11.364  15.967 -10.291  1.00  0.00     0.160 C 
ENDROOT
BRANCH   1   2
HETATM    2  C   UNL     1      12.541  16.875  -9.902  1.00  0.00     0.121 C 
BRANCH   2   3
HETATM    3  N   UNL     1      13.333  17.166 -11.090  1.00  0.00    -0.329 N 
HETATM    4  C   UNL     1      14.617  16.833 -11.176  1.00  0.00     0.361 C 
HETATM    5  O   UNL     1      15.292  16.308 -10.299  1.00  0.00    -0.238 OA
ATOM      6  HN  UNL     1      12.890  17.638 -11.877  1.00  0.00     0.165 HD
BRANCH   4   7
HETATM    7  O   UNL     1      15.094  17.196 -12.406  1.00  0.00    -0.296 OA
BRANCH   7   8
HETATM    8  C   UNL     1      15.168  18.590 -12.585  1.00  0.00     0.159 C 
HETATM    9  C   UNL     1      16.371  19.210 -11.844  1.00  0.00     0.061 C 
HETATM   10  C   UNL     1      17.503  18.656 -12.687  1.00  0.00     0.170 C 
HETATM   11  O   UNL     1      17.019  18.661 -14.047  1.00  0.00    -0.389 OA
HETATM   12  C   UNL     1      15.594  18.895 -14.037  1.00  0.00     0.200 C 
ENDBRANCH   7   8
ENDBRANCH   4   7
ENDBRANCH   2   3
BRANCH   2  13
HETATM   13  C   UNL     1      12.119  18.185  -9.221  1.00  0.00     0.066 C 
BRANCH  13  14
HETATM   14  C   UNL     1      12.917  18.444  -7.957  1.00  0.00    -0.056 A 
HETATM   15  C   UNL     1      12.701  19.585  -7.197  1.00  0.00     0.007 A 
HETATM   16  C   UNL     1      13.447  19.824  -6.052  1.00  0.00     0.001 A 
HETATM   17  C   UNL     1      14.412  18.929  -5.654  1.00  0.00     0.000 A 
HETATM   18  C   UNL     1      14.634  17.790  -6.391  1.00  0.00     0.001 A 
HETATM   19  C   UNL     1      13.892  17.552  -7.539  1.00  0.00     0.007 A 
ENDBRANCH  13  14
ENDBRANCH   2  13
ENDBRANCH   1   2
BRANCH   1  20
HETATM   20  O   UNL     1      10.370  15.941  -9.265  1.00  0.00    -0.392 OA
ATOM     21  HO  UNL     1       9.529  16.238  -9.593  1.00  0.00     0.210 HD
ENDBRANCH   1  20
BRANCH   1  22
HETATM   22  C   UNL     1      11.822  14.536 -10.493  1.00  0.00     0.169 C 
BRANCH  22  23
HETATM   23  N   UNL     1      11.234  13.820 -11.631  1.00  0.00    -0.304 N 
BRANCH  23  24
HETATM   24  C   UNL     1      10.090  14.497 -12.261  1.00  0.00     0.139 C 
BRANCH  24  25
HETATM   25  C   UNL     1      10.300  14.913 -13.702  1.00  0.00    -0.004 C 
HETATM   26  C   UNL     1       9.911  13.881 -14.712  1.00  0.00     0.011 C 
HETATM   27  C   UNL     1      11.791  15.281 -13.847  1.00  0.00     0.011 C 
ENDBRANCH  24  25
ENDBRANCH  23  24
BRANCH  23  28
HETATM   28  S   UNL     1      11.207  12.191 -11.589  1.00  0.00     0.260 S 
HETATM   29  O   UNL     1       9.842  11.775 -11.639  1.00  0.00    -0.200 OA
HETATM   30  O   UNL     1      12.004  11.820 -10.462  1.00  0.00    -0.200 OA
BRANCH  28  31
HETATM   31  C   UNL     1      12.022  11.619 -13.045  1.00  0.00     0.079 A 
HETATM   32  C   UNL     1      11.527  10.520 -13.737  1.00  0.00     0.027 A 
HETATM   33  C   UNL     1      12.175  10.086 -14.881  1.00  0.00     0.030 A 
HETATM   34  C   UNL     1      13.317  10.748 -15.357  1.00  0.00     0.025 A 
HETATM   35  C   UNL     1      13.792  11.861 -14.652  1.00  0.00     0.030 A 
HETATM   36  C   UNL     1      13.154  12.288 -13.503  1.00  0.00     0.027 A 
BRANCH  34  37
HETATM   37  N   UNL     1      13.960  10.316 -16.497  1.00  0.00    -0.399 N 
ATOM     38  HN2 UNL     1      14.834  10.752 -16.795  1.00  0.00     0.156 HD
ATOM     39  HN1 UNL     1      13.574   9.558 -17.060  1.00  0.00     0.156 HD
ENDBRANCH  34  37
ENDBRANCH  28  31
ENDBRANCH  23  28
ENDBRANCH  22  23
ENDBRANCH   1  22
TORSDOF 14
ENDMDL
MODEL 8
REMARK VINA RESULT:    -8.467      1.594      1.973
REMARK INTER + INTRA:         -16.542
REMARK INTER:                 -14.514
REMARK INTRA:                  -2.028
REMARK UNBOUND:                -1.641
REMARK  14 active torsions:
REMARK  status: ('A' for Active; 'I' for Inactive)
REMARK       I    between atoms: C_3  and  N_26 
REMARK    1  A    between atoms: C_3  and  O_32 
REMARK    2  A    between atoms: C_4  and  O_32 
REMARK    3  A    between atoms: C_5  and  N_26 
REMARK    4  A    between atoms: C_5  and  C_6 
REMARK    5  A    between atoms: C_5  and  C_7 
REMARK    6  A    between atoms: C_6  and  O_34 
REMARK    7  A    between atoms: C_6  and  C_14 
REMARK    8  A    between atoms: C_7  and  C_8 
REMARK    9  A    between atoms: C_14  and  N_28 
REMARK   10  A    between atoms: C_15  and  N_28 
REMARK   11  A    between atoms: C_15  and  C_16 
REMARK   12  A    between atoms: C_17  and  S_39 
REMARK   13  A    between atoms: C_20  and  N_29 
REMARK   14  A    between atoms: N_28  and  S_39 
ROOT
HETATM    1  C   UNL     1      12.210  16.324 -12.219  1.00  0.00     0.160 C 
ENDROOT
BRANCH   1   2
HETATM    2  C   UNL     1      12.936  17.004 -11.048  1.00  0.00     0.121 C 
BRANCH   2   3
HETATM    3  N   UNL     1      13.849  18.012 -11.572  1.00  0.00    -0.329 N 
HETATM    4  C   UNL     1      15.162  17.808 -11.630  1.00  0.00     0.361 C 
HETATM    5  O   UNL     1      15.761  16.818 -11.229  1.00  0.00    -0.238 OA
ATOM      6  HN  UNL     1      13.471  18.899 -11.903  1.00  0.00     0.165 HD
BRANCH   4   7
HETATM    7  O   UNL     1      15.762  18.901 -12.191  1.00  0.00    -0.296 OA
BRANCH   7   8
HETATM    8  C   UNL     1      15.498  20.098 -11.499  1.00  0.00     0.159 C 
HETATM    9  C   UNL     1      16.225  20.156 -10.138  1.00  0.00     0.061 C 
HETATM   10  C   UNL     1      17.655  20.300 -10.619  1.00  0.00     0.170 C 
HETATM   11  O   UNL     1      17.594  21.143 -11.789  1.00  0.00    -0.389 OA
HETATM   12  C   UNL     1      16.217  21.265 -12.208  1.00  0.00     0.200 C 
ENDBRANCH   7   8
ENDBRANCH   4   7
ENDBRANCH   2   3
BRANCH   2  13
HETATM   13  C   UNL     1      11.993  17.639 -10.015  1.00  0.00     0.066 C 
BRANCH  13  14
HETATM   14  C   UNL     1      12.714  17.958  -8.719  1.00  0.00    -0.056 A 
HETATM   15  C   UNL     1      13.695  17.112  -8.221  1.00  0.00     0.007 A 
HETATM   16  C   UNL     1      14.339  17.400  -7.027  1.00  0.00     0.001 A 
HETATM   17  C   UNL     1      14.012  18.533  -6.320  1.00  0.00     0.000 A 
HETATM   18  C   UNL     1      13.048  19.386  -6.802  1.00  0.00     0.001 A 
HETATM   19  C   UNL     1      12.401  19.097  -7.994  1.00  0.00     0.007 A 
ENDBRANCH  13  14
ENDBRANCH   2  13
ENDBRANCH   1   2
BRANCH   1  20
HETATM   20  O   UNL     1      11.692  17.289 -13.137  1.00  0.00    -0.392 OA
ATOM     21  HO  UNL     1      11.165  16.876 -13.809  1.00  0.00     0.210 HD
ENDBRANCH   1  20
BRANCH   1  22
HETATM   22  C   UNL     1      11.030  15.507 -11.729  1.00  0.00     0.169 C 
BRANCH  22  23
HETATM   23  N   UNL     1      11.055  14.075 -12.048  1.00  0.00    -0.304 N 
BRANCH  23  24
HETATM   24  C   UNL     1       9.936  13.609 -12.880  1.00  0.00     0.139 C 
BRANCH  24  25
HETATM   25  C   UNL     1      10.316  13.135 -14.267  1.00  0.00    -0.004 C 
HETATM   26  C   UNL     1      11.662  13.588 -14.734  1.00  0.00     0.011 C 
HETATM   27  C   UNL     1       9.214  13.631 -15.226  1.00  0.00     0.011 C 
ENDBRANCH  24  25
ENDBRANCH  23  24
BRANCH  23  28
HETATM   28  S   UNL     1      11.631  13.043 -10.925  1.00  0.00     0.260 S 
HETATM   29  O   UNL     1      12.121  13.819  -9.830  1.00  0.00    -0.200 OA
HETATM   30  O   UNL     1      12.530  12.178 -11.619  1.00  0.00    -0.200 OA
BRANCH  28  31
HETATM   31  C   UNL     1      10.267  12.076 -10.361  1.00  0.00     0.079 A 
HETATM   32  C   UNL     1      10.203  10.719 -10.659  1.00  0.00     0.027 A 
HETATM   33  C   UNL     1       9.130   9.972 -10.206  1.00  0.00     0.030 A 
HETATM   34  C   UNL     1       8.112  10.562  -9.441  1.00  0.00     0.025 A 
HETATM   35  C   UNL     1       8.202  11.928  -9.142  1.00  0.00     0.030 A 
HETATM   36  C   UNL     1       9.267  12.679  -9.604  1.00  0.00     0.027 A 
BRANCH  34  37
HETATM   37  N   UNL     1       7.045   9.817  -8.989  1.00  0.00    -0.399 N 
ATOM     38  HN2 UNL     1       6.151   9.841  -9.482  1.00  0.00     0.156 HD
ATOM     39  HN1 UNL     1       7.130   9.232  -8.158  1.00  0.00     0.156 HD
ENDBRANCH  34  37
ENDBRANCH  28  31
ENDBRANCH  23  28
ENDBRANCH  22  23
ENDBRANCH   1  22
TORSDOF 14
ENDMDL
MODEL 9
REMARK VINA RESULT:    -8.282      2.021      2.972
REMARK INTER + INTRA:         -16.217
REMARK INTER:                 -14.352
REMARK INTRA:                  -1.864
REMARK UNBOUND:                -1.641
REMARK  14 active torsions:
REMARK  status: ('A' for Active; 'I' for Inactive)
REMARK       I    between atoms: C_3  and  N_26 
REMARK    1  A    between atoms: C_3  and  O_32 
REMARK    2  A    between atoms: C_4  and  O_32 
REMARK    3  A    between atoms: C_5  and  N_26 
REMARK    4  A    between atoms: C_5  and  C_6 
REMARK    5  A    between atoms: C_5  and  C_7 
REMARK    6  A    between atoms: C_6  and  O_34 
REMARK    7  A    between atoms: C_6  and  C_14 
REMARK    8  A    between atoms: C_7  and  C_8 
REMARK    9  A    between atoms: C_14  and  N_28 
REMARK   10  A    between atoms: C_15  and  N_28 
REMARK   11  A    between atoms: C_15  and  C_16 
REMARK   12  A    between atoms: C_17  and  S_39 
REMARK   13  A    between atoms: C_20  and  N_29 
REMARK   14  A    between atoms: N_28  and  S_39 
ROOT
HETATM    1  C   UNL     1      13.412  16.876 -12.493  1.00  0.00     0.160 C 
ENDROOT
BRANCH   1   2
HETATM    2  C   UNL     1      13.925  17.944 -11.515  1.00  0.00     0.121 C 
BRANCH   2   3
HETATM    3  N   UNL     1      14.433  19.081 -12.272  1.00  0.00    -0.329 N 
HETATM    4  C   UNL     1      15.448  19.819 -11.834  1.00  0.00     0.361 C 
HETATM    5  O   UNL     1      16.037  19.686 -10.769  1.00  0.00    -0.238 OA
ATOM      6  HN  UNL     1      13.997  19.318 -13.163  1.00  0.00     0.165 HD
BRANCH   4   7
HETATM    7  O   UNL     1      15.729  20.789 -12.757  1.00  0.00    -0.296 OA
BRANCH   7   8
HETATM    8  C   UNL     1      16.398  20.299 -13.894  1.00  0.00     0.159 C 
HETATM    9  C   UNL     1      16.594  21.389 -14.970  1.00  0.00     0.061 C 
HETATM   10  C   UNL     1      17.619  22.257 -14.269  1.00  0.00     0.170 C 
HETATM   11  O   UNL     1      18.485  21.348 -13.558  1.00  0.00    -0.389 OA
HETATM   12  C   UNL     1      17.877  20.037 -13.543  1.00  0.00     0.200 C 
ENDBRANCH   7   8
ENDBRANCH   4   7
ENDBRANCH   2   3
BRANCH   2  13
HETATM   13  C   UNL     1      12.872  18.419 -10.502  1.00  0.00     0.066 C 
BRANCH  13  14
HETATM   14  C   UNL     1      13.302  18.141  -9.074  1.00  0.00    -0.056 A 
HETATM   15  C   UNL     1      12.520  18.545  -8.002  1.00  0.00     0.007 A 
HETATM   16  C   UNL     1      12.926  18.304  -6.698  1.00  0.00     0.001 A 
HETATM   17  C   UNL     1      14.115  17.657  -6.451  1.00  0.00     0.000 A 
HETATM   18  C   UNL     1      14.899  17.243  -7.502  1.00  0.00     0.001 A 
HETATM   19  C   UNL     1      14.495  17.488  -8.806  1.00  0.00     0.007 A 
ENDBRANCH  13  14
ENDBRANCH   2  13
ENDBRANCH   1   2
BRANCH   1  20
HETATM   20  O   UNL     1      13.687  17.240 -13.847  1.00  0.00    -0.392 OA
ATOM     21  HO  UNL     1      14.109  18.089 -13.896  1.00  0.00     0.210 HD
ENDBRANCH   1  20
BRANCH   1  22
HETATM   22  C   UNL     1      11.909  16.709 -12.379  1.00  0.00     0.169 C 
BRANCH  22  23
HETATM   23  N   UNL     1      11.429  15.364 -12.043  1.00  0.00    -0.304 N 
BRANCH  23  24
HETATM   24  C   UNL     1      10.290  14.896 -12.846  1.00  0.00     0.139 C 
BRANCH  24  25
HETATM   25  C   UNL     1      10.616  14.537 -14.281  1.00  0.00    -0.004 C 
HETATM   26  C   UNL     1       9.562  13.739 -14.979  1.00  0.00     0.011 C 
HETATM   27  C   UNL     1      11.953  13.766 -14.255  1.00  0.00     0.011 C 
ENDBRANCH  24  25
ENDBRANCH  23  24
BRANCH  23  28
HETATM   28  S   UNL     1      11.488  14.890 -10.484  1.00  0.00     0.260 S 
HETATM   29  O   UNL     1      10.622  15.743  -9.735  1.00  0.00    -0.200 OA
HETATM   30  O   UNL     1      12.875  14.840 -10.147  1.00  0.00    -0.200 OA
BRANCH  28  31
HETATM   31  C   UNL     1      10.851  13.246 -10.417  1.00  0.00     0.079 A 
HETATM   32  C   UNL     1      11.526  12.208 -11.051  1.00  0.00     0.027 A 
HETATM   33  C   UNL     1      11.015  10.923 -10.986  1.00  0.00     0.030 A 
HETATM   34  C   UNL     1       9.835  10.652 -10.278  1.00  0.00     0.025 A 
HETATM   35  C   UNL     1       9.177  11.709  -9.637  1.00  0.00     0.030 A 
HETATM   36  C   UNL     1       9.677  12.995  -9.711  1.00  0.00     0.027 A 
BRANCH  34  37
HETATM   37  N   UNL     1       9.329   9.371 -10.213  1.00  0.00    -0.399 N 
ATOM     38  HN2 UNL     1       8.341   9.195 -10.397  1.00  0.00     0.156 HD
ATOM     39  HN1 UNL     1       9.932   8.582  -9.979  1.00  0.00     0.156 HD
ENDBRANCH  34  37
ENDBRANCH  28  31
ENDBRANCH  23  28
ENDBRANCH  22  23
ENDBRANCH   1  22
TORSDOF 14
ENDMDL
MODEL 10
REMARK VINA RESULT:    -8.234      3.312      8.829
REMARK INTER + INTRA:         -16.133
REMARK INTER:                 -13.374
REMARK INTRA:                  -2.758
REMARK UNBOUND:                -1.641
REMARK  14 active torsions:
REMARK  status: ('A' for Active; 'I' for Inactive)
REMARK       I    between atoms: C_3  and  N_26 
REMARK    1  A    between atoms: C_3  and  O_32 
REMARK    2  A    between atoms: C_4  and  O_32 
REMARK    3  A    between atoms: C_5  and  N_26 
REMARK    4  A    between atoms: C_5  and  C_6 
REMARK    5  A    between atoms: C_5  and  C_7 
REMARK    6  A    between atoms: C_6  and  O_34 
REMARK    7  A    between atoms: C_6  and  C_14 
REMARK    8  A    between atoms: C_7  and  C_8 
REMARK    9  A    between atoms: C_14  and  N_28 
REMARK   10  A    between atoms: C_15  and  N_28 
REMARK   11  A    between atoms: C_15  and  C_16 
REMARK   12  A    between atoms: C_17  and  S_39 
REMARK   13  A    between atoms: C_20  and  N_29 
REMARK   14  A    between atoms: N_28  and  S_39 
ROOT
HETATM    1  C   UNL     1      13.963  18.297 -11.053  1.00  0.00     0.160 C 
ENDROOT
BRANCH   1   2
HETATM    2  C   UNL     1      13.429  17.281 -10.033  1.00  0.00     0.121 C 
BRANCH   2   3
HETATM    3  N   UNL     1      13.215  16.002 -10.698  1.00  0.00    -0.329 N 
HETATM    4  C   UNL     1      12.114  15.283 -10.501  1.00  0.00     0.361 C 
HETATM    5  O   UNL     1      11.196  15.555  -9.738  1.00  0.00    -0.238 OA
ATOM      6  HN  UNL     1      13.931  15.648 -11.333  1.00  0.00     0.165 HD
BRANCH   4   7
HETATM    7  O   UNL     1      12.170  14.156 -11.274  1.00  0.00    -0.296 OA
BRANCH   7   8
HETATM    8  C   UNL     1      11.765  14.373 -12.605  1.00  0.00     0.159 C 
HETATM    9  C   UNL     1      12.382  13.344 -13.576  1.00  0.00     0.061 C 
HETATM   10  C   UNL     1      11.628  12.102 -13.145  1.00  0.00     0.170 C 
HETATM   11  O   UNL     1      10.291  12.543 -12.828  1.00  0.00    -0.389 OA
HETATM   12  C   UNL     1      10.279  13.986 -12.755  1.00  0.00     0.200 C 
ENDBRANCH   7   8
ENDBRANCH   4   7
ENDBRANCH   2   3
BRANCH   2  13
HETATM   13  C   UNL     1      14.339  17.088  -8.810  1.00  0.00     0.066 C 
BRANCH  13  14
HETATM   14  C   UNL     1      13.952  18.013  -7.671  1.00  0.00    -0.056 A 
HETATM   15  C   UNL     1      12.770  18.739  -7.712  1.00  0.00     0.007 A 
HETATM   16  C   UNL     1      12.430  19.596  -6.676  1.00  0.00     0.001 A 
HETATM   17  C   UNL     1      13.263  19.735  -5.590  1.00  0.00     0.000 A 
HETATM   18  C   UNL     1      14.434  19.017  -5.530  1.00  0.00     0.001 A 
HETATM   19  C   UNL     1      14.777  18.164  -6.568  1.00  0.00     0.007 A 
ENDBRANCH  13  14
ENDBRANCH   2  13
ENDBRANCH   1   2
BRANCH   1  20
HETATM   20  O   UNL     1      13.591  17.938 -12.385  1.00  0.00    -0.392 OA
ATOM     21  HO  UNL     1      14.252  17.389 -12.790  1.00  0.00     0.210 HD
ENDBRANCH   1  20
BRANCH   1  22
HETATM   22  C   UNL     1      15.478  18.357 -11.022  1.00  0.00     0.169 C 
BRANCH  22  23
HETATM   23  N   UNL     1      16.079  19.684 -11.200  1.00  0.00    -0.304 N 
BRANCH  23  24
HETATM   24  C   UNL     1      15.489  20.745 -10.370  1.00  0.00     0.139 C 
BRANCH  24  25
HETATM   25  C   UNL     1      16.291  21.125  -9.143  1.00  0.00    -0.004 C 
HETATM   26  C   UNL     1      15.471  21.584  -7.980  1.00  0.00     0.011 C 
HETATM   27  C   UNL     1      17.279  22.227  -9.580  1.00  0.00     0.011 C 
ENDBRANCH  24  25
ENDBRANCH  23  24
BRANCH  23  28
HETATM   28  S   UNL     1      16.602  20.102 -12.687  1.00  0.00     0.260 S 
HETATM   29  O   UNL     1      16.347  21.496 -12.863  1.00  0.00    -0.200 OA
HETATM   30  O   UNL     1      16.002  19.167 -13.585  1.00  0.00    -0.200 OA
BRANCH  28  31
HETATM   31  C   UNL     1      18.347  19.843 -12.716  1.00  0.00     0.079 A 
HETATM   32  C   UNL     1      19.038  19.605 -11.532  1.00  0.00     0.027 A 
HETATM   33  C   UNL     1      20.406  19.400 -11.572  1.00  0.00     0.030 A 
HETATM   34  C   UNL     1      21.103  19.416 -12.790  1.00  0.00     0.025 A 
HETATM   35  C   UNL     1      20.386  19.645 -13.971  1.00  0.00     0.030 A 
HETATM   36  C   UNL     1      19.022  19.863 -13.933  1.00  0.00     0.027 A 
BRANCH  34  37
HETATM   37  N   UNL     1      22.465  19.208 -12.827  1.00  0.00    -0.399 N 
ATOM     38  HN2 UNL     1      22.869  18.541 -13.485  1.00  0.00     0.156 HD
ATOM     39  HN1 UNL     1      23.088  19.716 -12.200  1.00  0.00     0.156 HD
ENDBRANCH  34  37
ENDBRANCH  28  31
ENDBRANCH  23  28
ENDBRANCH  22  23
ENDBRANCH   1  22
TORSDOF 14
ENDMDL
MODEL 11
REMARK VINA RESULT:    -8.199      3.217      8.603
REMARK INTER + INTRA:         -16.070
REMARK INTER:                 -13.765
REMARK INTRA:                  -2.305
REMARK UNBOUND:                -1.641
REMARK  14 active torsions:
REMARK  status: ('A' for Active; 'I' for Inactive)
REMARK       I    between atoms: C_3  and  N_26 
REMARK    1  A    between atoms: C_3  and  O_32 
REMARK    2  A    between atoms: C_4  and  O_32 
REMARK    3  A    between atoms: C_5  and  N_26 
REMARK    4  A    between atoms: C_5  and  C_6 
REMARK    5  A    between atoms: C_5  and  C_7 
REMARK    6  A    between atoms: C_6  and  O_34 
REMARK    7  A    between atoms: C_6  and  C_14 
REMARK    8  A    between atoms: C_7  and  C_8 
REMARK    9  A    between atoms: C_14  and  N_28 
REMARK   10  A    between atoms: C_15  and  N_28 
REMARK   11  A    between atoms: C_15  and  C_16 
REMARK   12  A    between atoms: C_17  and  S_39 
REMARK   13  A    between atoms: C_20  and  N_29 
REMARK   14  A    between atoms: N_28  and  S_39 
ROOT
HETATM    1  C   UNL     1      13.730  18.328 -11.407  1.00  0.00     0.160 C 
ENDROOT
BRANCH   1   2
HETATM    2  C   UNL     1      13.350  17.426 -10.223  1.00  0.00     0.121 C 
BRANCH   2   3
HETATM    3  N   UNL     1      13.053  16.087 -10.718  1.00  0.00    -0.329 N 
HETATM    4  C   UNL     1      11.959  15.428 -10.348  1.00  0.00     0.361 C 
HETATM    5  O   UNL     1      11.117  15.811  -9.546  1.00  0.00    -0.238 OA
ATOM      6  HN  UNL     1      13.704  15.643 -11.366  1.00  0.00     0.165 HD
BRANCH   4   7
HETATM    7  O   UNL     1      11.925  14.220 -10.989  1.00  0.00    -0.296 OA
BRANCH   7   8
HETATM    8  C   UNL     1      10.643  13.876 -11.459  1.00  0.00     0.159 C 
HETATM    9  C   UNL     1      10.257  14.667 -12.727  1.00  0.00     0.061 C 
HETATM   10  C   UNL     1      11.211  14.036 -13.722  1.00  0.00     0.170 C 
HETATM   11  O   UNL     1      11.287  12.640 -13.364  1.00  0.00    -0.389 OA
HETATM   12  C   UNL     1      10.686  12.457 -12.063  1.00  0.00     0.200 C 
ENDBRANCH   7   8
ENDBRANCH   4   7
ENDBRANCH   2   3
BRANCH   2  13
HETATM   13  C   UNL     1      14.423  17.352  -9.127  1.00  0.00     0.066 C 
BRANCH  13  14
HETATM   14  C   UNL     1      14.015  18.131  -7.890  1.00  0.00    -0.056 A 
HETATM   15  C   UNL     1      12.789  18.778  -7.826  1.00  0.00     0.007 A 
HETATM   16  C   UNL     1      12.429  19.503  -6.699  1.00  0.00     0.001 A 
HETATM   17  C   UNL     1      13.287  19.588  -5.628  1.00  0.00     0.000 A 
HETATM   18  C   UNL     1      14.502  18.947  -5.672  1.00  0.00     0.001 A 
HETATM   19  C   UNL     1      14.865  18.226  -6.799  1.00  0.00     0.007 A 
ENDBRANCH  13  14
ENDBRANCH   2  13
ENDBRANCH   1   2
BRANCH   1  20
HETATM   20  O   UNL     1      13.516  17.663 -12.654  1.00  0.00    -0.392 OA
ATOM     21  HO  UNL     1      12.624  17.781 -12.958  1.00  0.00     0.210 HD
ENDBRANCH   1  20
BRANCH   1  22
HETATM   22  C   UNL     1      15.198  18.704 -11.357  1.00  0.00     0.169 C 
BRANCH  22  23
HETATM   23  N   UNL     1      15.525  20.092 -11.704  1.00  0.00    -0.304 N 
BRANCH  23  24
HETATM   24  C   UNL     1      15.890  20.307 -13.111  1.00  0.00     0.139 C 
BRANCH  24  25
HETATM   25  C   UNL     1      16.411  19.084 -13.837  1.00  0.00    -0.004 C 
HETATM   26  C   UNL     1      17.893  19.059 -14.035  1.00  0.00     0.011 C 
HETATM   27  C   UNL     1      15.680  19.026 -15.195  1.00  0.00     0.011 C 
ENDBRANCH  24  25
ENDBRANCH  23  24
BRANCH  23  28
HETATM   28  S   UNL     1      16.282  21.009 -10.588  1.00  0.00     0.260 S 
HETATM   29  O   UNL     1      15.906  20.525  -9.297  1.00  0.00    -0.200 OA
HETATM   30  O   UNL     1      15.985  22.363 -10.934  1.00  0.00    -0.200 OA
BRANCH  28  31
HETATM   31  C   UNL     1      18.015  20.759 -10.799  1.00  0.00     0.079 A 
HETATM   32  C   UNL     1      18.573  19.506 -10.571  1.00  0.00     0.027 A 
HETATM   33  C   UNL     1      19.935  19.325 -10.745  1.00  0.00     0.030 A 
HETATM   34  C   UNL     1      20.756  20.384 -11.160  1.00  0.00     0.025 A 
HETATM   35  C   UNL     1      20.172  21.635 -11.396  1.00  0.00     0.030 A 
HETATM   36  C   UNL     1      18.815  21.822 -11.211  1.00  0.00     0.027 A 
BRANCH  34  37
HETATM   37  N   UNL     1      22.111  20.201 -11.335  1.00  0.00    -0.399 N 
ATOM     38  HN2 UNL     1      22.759  20.370 -10.565  1.00  0.00     0.156 HD
ATOM     39  HN1 UNL     1      22.486  19.896 -12.233  1.00  0.00     0.156 HD
ENDBRANCH  34  37
ENDBRANCH  28  31
ENDBRANCH  23  28
ENDBRANCH  22  23
ENDBRANCH   1  22
TORSDOF 14
ENDMDL
MODEL 12
REMARK VINA RESULT:    -8.080      2.198      3.062
REMARK INTER + INTRA:         -15.861
REMARK INTER:                 -13.908
REMARK INTRA:                  -1.953
REMARK UNBOUND:                -1.641
REMARK  14 active torsions:
REMARK  status: ('A' for Active; 'I' for Inactive)
REMARK       I    between atoms: C_3  and  N_26 
REMARK    1  A    between atoms: C_3  and  O_32 
REMARK    2  A    between atoms: C_4  and  O_32 
REMARK    3  A    between atoms: C_5  and  N_26 
REMARK    4  A    between atoms: C_5  and  C_6 
REMARK    5  A    between atoms: C_5  and  C_7 
REMARK    6  A    between atoms: C_6  and  O_34 
REMARK    7  A    between atoms: C_6  and  C_14 
REMARK    8  A    between atoms: C_7  and  C_8 
REMARK    9  A    between atoms: C_14  and  N_28 
REMARK   10  A    between atoms: C_15  and  N_28 
REMARK   11  A    between atoms: C_15  and  C_16 
REMARK   12  A    between atoms: C_17  and  S_39 
REMARK   13  A    between atoms: C_20  and  N_29 
REMARK   14  A    between atoms: N_28  and  S_39 
ROOT
HETATM    1  C   UNL     1      11.448  16.017 -10.361  1.00  0.00     0.160 C 
ENDROOT
BRANCH   1   2
HETATM    2  C   UNL     1      12.586  16.935  -9.889  1.00  0.00     0.121 C 
BRANCH   2   3
HETATM    3  N   UNL     1      13.330  17.409 -11.049  1.00  0.00    -0.329 N 
HETATM    4  C   UNL     1      14.599  17.072 -11.256  1.00  0.00     0.361 C 
HETATM    5  O   UNL     1      15.300  16.392 -10.516  1.00  0.00    -0.238 OA
ATOM      6  HN  UNL     1      12.863  18.018 -11.722  1.00  0.00     0.165 HD
BRANCH   4   7
HETATM    7  O   UNL     1      15.027  17.630 -12.429  1.00  0.00    -0.296 OA
BRANCH   7   8
HETATM    8  C   UNL     1      16.324  18.172 -12.347  1.00  0.00     0.159 C 
HETATM    9  C   UNL     1      16.979  18.326 -13.737  1.00  0.00     0.061 C 
HETATM   10  C   UNL     1      16.130  19.451 -14.295  1.00  0.00     0.170 C 
HETATM   11  O   UNL     1      15.860  20.330 -13.182  1.00  0.00    -0.389 OA
HETATM   12  C   UNL     1      16.231  19.662 -11.956  1.00  0.00     0.200 C 
ENDBRANCH   7   8
ENDBRANCH   4   7
ENDBRANCH   2   3
BRANCH   2  13
HETATM   13  C   UNL     1      12.116  18.129  -9.046  1.00  0.00     0.066 C 
BRANCH  13  14
HETATM   14  C   UNL     1      13.018  18.362  -7.849  1.00  0.00    -0.056 A 
HETATM   15  C   UNL     1      13.969  17.421  -7.479  1.00  0.00     0.007 A 
HETATM   16  C   UNL     1      14.780  17.631  -6.373  1.00  0.00     0.001 A 
HETATM   17  C   UNL     1      14.651  18.780  -5.628  1.00  0.00     0.000 A 
HETATM   18  C   UNL     1      13.720  19.726  -5.986  1.00  0.00     0.001 A 
HETATM   19  C   UNL     1      12.906  19.515  -7.088  1.00  0.00     0.007 A 
ENDBRANCH  13  14
ENDBRANCH   2  13
ENDBRANCH   1   2
BRANCH   1  20
HETATM   20  O   UNL     1      10.258  16.238  -9.603  1.00  0.00    -0.392 OA
ATOM     21  HO  UNL     1      10.283  17.077  -9.159  1.00  0.00     0.210 HD
ENDBRANCH   1  20
BRANCH   1  22
HETATM   22  C   UNL     1      11.816  14.557 -10.185  1.00  0.00     0.169 C 
BRANCH  22  23
HETATM   23  N   UNL     1      11.205  13.615 -11.129  1.00  0.00    -0.304 N 
BRANCH  23  24
HETATM   24  C   UNL     1      10.522  14.241 -12.271  1.00  0.00     0.139 C 
BRANCH  24  25
HETATM   25  C   UNL     1      10.940  13.728 -13.633  1.00  0.00    -0.004 C 
HETATM   26  C   UNL     1      12.127  14.419 -14.224  1.00  0.00     0.011 C 
HETATM   27  C   UNL     1       9.713  13.869 -14.559  1.00  0.00     0.011 C 
ENDBRANCH  24  25
ENDBRANCH  23  24
BRANCH  23  28
HETATM   28  S   UNL     1      10.562  12.237 -10.539  1.00  0.00     0.260 S 
HETATM   29  O   UNL     1       9.186  12.200 -10.919  1.00  0.00    -0.200 OA
HETATM   30  O   UNL     1      10.900  12.216  -9.151  1.00  0.00    -0.200 OA
BRANCH  28  31
HETATM   31  C   UNL     1      11.398  10.896 -11.325  1.00  0.00     0.079 A 
HETATM   32  C   UNL     1      12.675  11.077 -11.844  1.00  0.00     0.027 A 
HETATM   33  C   UNL     1      13.319  10.015 -12.454  1.00  0.00     0.030 A 
HETATM   34  C   UNL     1      12.707   8.756 -12.543  1.00  0.00     0.025 A 
HETATM   35  C   UNL     1      11.425   8.591 -12.003  1.00  0.00     0.030 A 
HETATM   36  C   UNL     1      10.774   9.654 -11.405  1.00  0.00     0.027 A 
BRANCH  34  37
HETATM   37  N   UNL     1      13.351   7.698 -13.149  1.00  0.00    -0.399 N 
ATOM     38  HN2 UNL     1      12.815   6.933 -13.560  1.00  0.00     0.156 HD
ATOM     39  HN1 UNL     1      14.369   7.662 -13.194  1.00  0.00     0.156 HD
ENDBRANCH  34  37
ENDBRANCH  28  31
ENDBRANCH  23  28
ENDBRANCH  22  23
ENDBRANCH   1  22
TORSDOF 14
ENDMDL
MODEL 13
REMARK VINA RESULT:    -8.048      4.070      6.912
REMARK INTER + INTRA:         -15.804
REMARK INTER:                 -13.883
REMARK INTRA:                  -1.921
REMARK UNBOUND:                -1.641
REMARK  14 active torsions:
REMARK  status: ('A' for Active; 'I' for Inactive)
REMARK       I    between atoms: C_3  and  N_26 
REMARK    1  A    between atoms: C_3  and  O_32 
REMARK    2  A    between atoms: C_4  and  O_32 
REMARK    3  A    between atoms: C_5  and  N_26 
REMARK    4  A    between atoms: C_5  and  C_6 
REMARK    5  A    between atoms: C_5  and  C_7 
REMARK    6  A    between atoms: C_6  and  O_34 
REMARK    7  A    between atoms: C_6  and  C_14 
REMARK    8  A    between atoms: C_7  and  C_8 
REMARK    9  A    between atoms: C_14  and  N_28 
REMARK   10  A    between atoms: C_15  and  N_28 
REMARK   11  A    between atoms: C_15  and  C_16 
REMARK   12  A    between atoms: C_17  and  S_39 
REMARK   13  A    between atoms: C_20  and  N_29 
REMARK   14  A    between atoms: N_28  and  S_39 
ROOT
HETATM    1  C   UNL     1      16.082  21.133 -11.270  1.00  0.00     0.160 C 
ENDROOT
BRANCH   1   2
HETATM    2  C   UNL     1      16.688  20.850  -9.887  1.00  0.00     0.121 C 
BRANCH   2   3
HETATM    3  N   UNL     1      18.093  21.237  -9.892  1.00  0.00    -0.329 N 
HETATM    4  C   UNL     1      18.471  22.511  -9.951  1.00  0.00     0.361 C 
HETATM    5  O   UNL     1      17.733  23.483 -10.053  1.00  0.00    -0.238 OA
ATOM      6  HN  UNL     1      18.807  20.510  -9.849  1.00  0.00     0.165 HD
BRANCH   4   7
HETATM    7  O   UNL     1      19.836  22.577  -9.907  1.00  0.00    -0.296 OA
BRANCH   7   8
HETATM    8  C   UNL     1      20.319  23.806  -9.420  1.00  0.00     0.159 C 
HETATM    9  C   UNL     1      21.272  23.624  -8.219  1.00  0.00     0.061 C 
HETATM   10  C   UNL     1      22.458  23.002  -8.928  1.00  0.00     0.170 C 
HETATM   11  O   UNL     1      22.536  23.654 -10.213  1.00  0.00    -0.389 OA
HETATM   12  C   UNL     1      21.318  24.399 -10.435  1.00  0.00     0.200 C 
ENDBRANCH   7   8
ENDBRANCH   4   7
ENDBRANCH   2   3
BRANCH   2  13
HETATM   13  C   UNL     1      15.957  21.550  -8.732  1.00  0.00     0.066 C 
BRANCH  13  14
HETATM   14  C   UNL     1      15.188  20.562  -7.874  1.00  0.00    -0.056 A 
HETATM   15  C   UNL     1      14.429  20.994  -6.795  1.00  0.00     0.007 A 
HETATM   16  C   UNL     1      13.742  20.085  -6.005  1.00  0.00     0.001 A 
HETATM   17  C   UNL     1      13.804  18.739  -6.283  1.00  0.00     0.000 A 
HETATM   18  C   UNL     1      14.545  18.295  -7.352  1.00  0.00     0.001 A 
HETATM   19  C   UNL     1      15.236  19.203  -8.141  1.00  0.00     0.007 A 
ENDBRANCH  13  14
ENDBRANCH   2  13
ENDBRANCH   1   2
BRANCH   1  20
HETATM   20  O   UNL     1      15.202  22.258 -11.229  1.00  0.00    -0.392 OA
ATOM     21  HO  UNL     1      14.419  22.101 -11.743  1.00  0.00     0.210 HD
ENDBRANCH   1  20
BRANCH   1  22
HETATM   22  C   UNL     1      15.265  19.954 -11.759  1.00  0.00     0.169 C 
BRANCH  22  23
HETATM   23  N   UNL     1      15.987  18.942 -12.539  1.00  0.00    -0.304 N 
BRANCH  23  24
HETATM   24  C   UNL     1      15.974  19.158 -13.993  1.00  0.00     0.139 C 
BRANCH  24  25
HETATM   25  C   UNL     1      17.214  19.819 -14.558  1.00  0.00    -0.004 C 
HETATM   26  C   UNL     1      18.420  19.738 -13.678  1.00  0.00     0.011 C 
HETATM   27  C   UNL     1      16.845  21.291 -14.840  1.00  0.00     0.011 C 
ENDBRANCH  24  25
ENDBRANCH  23  24
BRANCH  23  28
HETATM   28  S   UNL     1      15.961  17.398 -12.013  1.00  0.00     0.260 S 
HETATM   29  O   UNL     1      16.579  17.364 -10.727  1.00  0.00    -0.200 OA
HETATM   30  O   UNL     1      16.520  16.620 -13.073  1.00  0.00    -0.200 OA
BRANCH  28  31
HETATM   31  C   UNL     1      14.267  16.939 -11.835  1.00  0.00     0.079 A 
HETATM   32  C   UNL     1      13.730  16.727 -10.569  1.00  0.00     0.027 A 
HETATM   33  C   UNL     1      12.398  16.372 -10.445  1.00  0.00     0.030 A 
HETATM   34  C   UNL     1      11.580  16.234 -11.577  1.00  0.00     0.025 A 
HETATM   35  C   UNL     1      12.137  16.464 -12.841  1.00  0.00     0.030 A 
HETATM   36  C   UNL     1      13.470  16.807 -12.969  1.00  0.00     0.027 A 
BRANCH  34  37
HETATM   37  N   UNL     1      10.253  15.882 -11.451  1.00  0.00    -0.399 N 
ATOM     38  HN2 UNL     1       9.994  14.964 -11.089  1.00  0.00     0.156 HD
ATOM     39  HN1 UNL     1       9.513  16.530 -11.718  1.00  0.00     0.156 HD
ENDBRANCH  34  37
ENDBRANCH  28  31
ENDBRANCH  23  28
ENDBRANCH  22  23
ENDBRANCH   1  22
TORSDOF 14
ENDMDL
MODEL 14
REMARK VINA RESULT:    -7.957      2.772      9.109
REMARK INTER + INTRA:         -15.645
REMARK INTER:                 -13.628
REMARK INTRA:                  -2.017
REMARK UNBOUND:                -1.641
REMARK  14 active torsions:
REMARK  status: ('A' for Active; 'I' for Inactive)
REMARK       I    between atoms: C_3  and  N_26 
REMARK    1  A    between atoms: C_3  and  O_32 
REMARK    2  A    between atoms: C_4  and  O_32 
REMARK    3  A    between atoms: C_5  and  N_26 
REMARK    4  A    between atoms: C_5  and  C_6 
REMARK    5  A    between atoms: C_5  and  C_7 
REMARK    6  A    between atoms: C_6  and  O_34 
REMARK    7  A    between atoms: C_6  and  C_14 
REMARK    8  A    between atoms: C_7  and  C_8 
REMARK    9  A    between atoms: C_14  and  N_28 
REMARK   10  A    between atoms: C_15  and  N_28 
REMARK   11  A    between atoms: C_15  and  C_16 
REMARK   12  A    between atoms: C_17  and  S_39 
REMARK   13  A    between atoms: C_20  and  N_29 
REMARK   14  A    between atoms: N_28  and  S_39 
ROOT
HETATM    1  C   UNL     1      12.358  16.461  -9.566  1.00  0.00     0.160 C 
ENDROOT
BRANCH   1   2
HETATM    2  C   UNL     1      11.721  15.480 -10.562  1.00  0.00     0.121 C 
BRANCH   2   3
HETATM    3  N   UNL     1      10.651  14.749  -9.896  1.00  0.00    -0.329 N 
HETATM    4  C   UNL     1      10.662  13.423  -9.796  1.00  0.00     0.361 C 
HETATM    5  O   UNL     1      11.502  12.666 -10.266  1.00  0.00    -0.238 OA
ATOM      6  HN  UNL     1       9.871  15.270  -9.495  1.00  0.00     0.165 HD
BRANCH   4   7
HETATM    7  O   UNL     1       9.558  13.016  -9.099  1.00  0.00    -0.296 OA
BRANCH   7   8
HETATM    8  C   UNL     1       9.216  11.671  -9.332  1.00  0.00     0.159 C 
HETATM    9  C   UNL     1       9.516  10.774  -8.112  1.00  0.00     0.061 C 
HETATM   10  C   UNL     1       8.452  11.277  -7.158  1.00  0.00     0.170 C 
HETATM   11  O   UNL     1       7.292  11.553  -7.970  1.00  0.00    -0.389 OA
HETATM   12  C   UNL     1       7.680  11.533  -9.362  1.00  0.00     0.200 C 
ENDBRANCH   7   8
ENDBRANCH   4   7
ENDBRANCH   2   3
BRANCH   2  13
HETATM   13  C   UNL     1      11.185  16.147 -11.837  1.00  0.00     0.066 C 
BRANCH  13  14
HETATM   14  C   UNL     1      11.078  15.160 -12.985  1.00  0.00    -0.056 A 
HETATM   15  C   UNL     1       9.841  14.746 -13.457  1.00  0.00     0.007 A 
HETATM   16  C   UNL     1       9.749  13.831 -14.495  1.00  0.00     0.001 A 
HETATM   17  C   UNL     1      10.889  13.321 -15.071  1.00  0.00     0.000 A 
HETATM   18  C   UNL     1      12.123  13.726 -14.620  1.00  0.00     0.001 A 
HETATM   19  C   UNL     1      12.216  14.638 -13.580  1.00  0.00     0.007 A 
ENDBRANCH  13  14
ENDBRANCH   2  13
ENDBRANCH   1   2
BRANCH   1  20
HETATM   20  O   UNL     1      11.438  16.820  -8.534  1.00  0.00    -0.392 OA
ATOM     21  HO  UNL     1      11.591  16.314  -7.745  1.00  0.00     0.210 HD
ENDBRANCH   1  20
BRANCH   1  22
HETATM   22  C   UNL     1      12.768  17.748 -10.254  1.00  0.00     0.169 C 
BRANCH  22  23
HETATM   23  N   UNL     1      14.206  18.043 -10.275  1.00  0.00    -0.304 N 
BRANCH  23  24
HETATM   24  C   UNL     1      15.004  17.162 -11.141  1.00  0.00     0.139 C 
BRANCH  24  25
HETATM   25  C   UNL     1      15.400  17.756 -12.476  1.00  0.00    -0.004 C 
HETATM   26  C   UNL     1      14.403  17.551 -13.571  1.00  0.00     0.011 C 
HETATM   27  C   UNL     1      16.760  17.133 -12.856  1.00  0.00     0.011 C 
ENDBRANCH  24  25
ENDBRANCH  23  24
BRANCH  23  28
HETATM   28  S   UNL     1      14.906  18.574  -8.902  1.00  0.00     0.260 S 
HETATM   29  O   UNL     1      15.746  17.530  -8.408  1.00  0.00    -0.200 OA
HETATM   30  O   UNL     1      13.837  19.050  -8.082  1.00  0.00    -0.200 OA
BRANCH  28  31
HETATM   31  C   UNL     1      15.917  19.953  -9.334  1.00  0.00     0.079 A 
HETATM   32  C   UNL     1      15.625  21.218  -8.834  1.00  0.00     0.027 A 
HETATM   33  C   UNL     1      16.431  22.289  -9.179  1.00  0.00     0.030 A 
HETATM   34  C   UNL     1      17.544  22.115 -10.014  1.00  0.00     0.025 A 
HETATM   35  C   UNL     1      17.828  20.831 -10.497  1.00  0.00     0.030 A 
HETATM   36  C   UNL     1      17.018  19.761 -10.165  1.00  0.00     0.027 A 
BRANCH  34  37
HETATM   37  N   UNL     1      18.346  23.183 -10.355  1.00  0.00    -0.399 N 
ATOM     38  HN2 UNL     1      19.014  23.104 -11.123  1.00  0.00     0.156 HD
ATOM     39  HN1 UNL     1      18.287  24.065  -9.846  1.00  0.00     0.156 HD
ENDBRANCH  34  37
ENDBRANCH  28  31
ENDBRANCH  23  28
ENDBRANCH  22  23
ENDBRANCH   1  22
TORSDOF 14
ENDMDL
MODEL 15
REMARK VINA RESULT:    -7.855      3.930      9.576
REMARK INTER + INTRA:         -15.465
REMARK INTER:                 -13.154
REMARK INTRA:                  -2.311
REMARK UNBOUND:                -1.641
REMARK  14 active torsions:
REMARK  status: ('A' for Active; 'I' for Inactive)
REMARK       I    between atoms: C_3  and  N_26 
REMARK    1  A    between atoms: C_3  and  O_32 
REMARK    2  A    between atoms: C_4  and  O_32 
REMARK    3  A    between atoms: C_5  and  N_26 
REMARK    4  A    between atoms: C_5  and  C_6 
REMARK    5  A    between atoms: C_5  and  C_7 
REMARK    6  A    between atoms: C_6  and  O_34 
REMARK    7  A    between atoms: C_6  and  C_14 
REMARK    8  A    between atoms: C_7  and  C_8 
REMARK    9  A    between atoms: C_14  and  N_28 
REMARK   10  A    between atoms: C_15  and  N_28 
REMARK   11  A    between atoms: C_15  and  C_16 
REMARK   12  A    between atoms: C_17  and  S_39 
REMARK   13  A    between atoms: C_20  and  N_29 
REMARK   14  A    between atoms: N_28  and  S_39 
ROOT
HETATM    1  C   UNL     1      16.433  17.896 -10.731  1.00  0.00     0.160 C 
ENDROOT
BRANCH   1   2
HETATM    2  C   UNL     1      15.008  17.753 -10.177  1.00  0.00     0.121 C 
BRANCH   2   3
HETATM    3  N   UNL     1      14.208  16.970 -11.110  1.00  0.00    -0.329 N 
HETATM    4  C   UNL     1      13.011  17.376 -11.522  1.00  0.00     0.361 C 
HETATM    5  O   UNL     1      12.422  18.387 -11.159  1.00  0.00    -0.238 OA
ATOM      6  HN  UNL     1      14.577  16.084 -11.456  1.00  0.00     0.165 HD
BRANCH   4   7
HETATM    7  O   UNL     1      12.509  16.466 -12.411  1.00  0.00    -0.296 OA
BRANCH   7   8
HETATM    8  C   UNL     1      12.045  15.287 -11.799  1.00  0.00     0.159 C 
HETATM    9  C   UNL     1      10.531  15.343 -11.502  1.00  0.00     0.061 C 
HETATM   10  C   UNL     1       9.990  15.277 -12.916  1.00  0.00     0.170 C 
HETATM   11  O   UNL     1      10.865  14.379 -13.631  1.00  0.00    -0.389 OA
HETATM   12  C   UNL     1      12.046  14.141 -12.833  1.00  0.00     0.200 C 
ENDBRANCH   7   8
ENDBRANCH   4   7
ENDBRANCH   2   3
BRANCH   2  13
HETATM   13  C   UNL     1      14.943  17.125  -8.777  1.00  0.00     0.066 C 
BRANCH  13  14
HETATM   14  C   UNL     1      14.270  18.047  -7.778  1.00  0.00    -0.056 A 
HETATM   15  C   UNL     1      14.862  19.244  -7.401  1.00  0.00     0.007 A 
HETATM   16  C   UNL     1      14.250  20.076  -6.474  1.00  0.00     0.001 A 
HETATM   17  C   UNL     1      13.043  19.722  -5.917  1.00  0.00     0.000 A 
HETATM   18  C   UNL     1      12.440  18.542  -6.285  1.00  0.00     0.001 A 
HETATM   19  C   UNL     1      13.053  17.709  -7.208  1.00  0.00     0.007 A 
ENDBRANCH  13  14
ENDBRANCH   2  13
ENDBRANCH   1   2
BRANCH   1  20
HETATM   20  O   UNL     1      17.353  18.266  -9.703  1.00  0.00    -0.392 OA
ATOM     21  HO  UNL     1      17.797  19.078  -9.914  1.00  0.00     0.210 HD
ENDBRANCH   1  20
BRANCH   1  22
HETATM   22  C   UNL     1      16.501  18.978 -11.791  1.00  0.00     0.169 C 
BRANCH  22  23
HETATM   23  N   UNL     1      17.694  19.832 -11.772  1.00  0.00    -0.304 N 
BRANCH  23  24
HETATM   24  C   UNL     1      17.434  21.250 -11.482  1.00  0.00     0.139 C 
BRANCH  24  25
HETATM   25  C   UNL     1      17.693  21.675 -10.052  1.00  0.00    -0.004 C 
HETATM   26  C   UNL     1      16.476  22.102  -9.297  1.00  0.00     0.011 C 
HETATM   27  C   UNL     1      18.727  22.819 -10.108  1.00  0.00     0.011 C 
ENDBRANCH  24  25
ENDBRANCH  23  24
BRANCH  23  28
HETATM   28  S   UNL     1      18.904  19.492 -12.810  1.00  0.00     0.260 S 
HETATM   29  O   UNL     1      18.679  20.244 -14.004  1.00  0.00    -0.200 OA
HETATM   30  O   UNL     1      18.958  18.067 -12.888  1.00  0.00    -0.200 OA
BRANCH  28  31
HETATM   31  C   UNL     1      20.401  20.055 -12.066  1.00  0.00     0.079 A 
HETATM   32  C   UNL     1      21.013  21.218 -12.521  1.00  0.00     0.027 A 
HETATM   33  C   UNL     1      22.185  21.649 -11.923  1.00  0.00     0.030 A 
HETATM   34  C   UNL     1      22.756  20.936 -10.858  1.00  0.00     0.025 A 
HETATM   35  C   UNL     1      22.117  19.774 -10.408  1.00  0.00     0.030 A 
HETATM   36  C   UNL     1      20.954  19.335 -11.010  1.00  0.00     0.027 A 
BRANCH  34  37
HETATM   37  N   UNL     1      23.922  21.368 -10.263  1.00  0.00    -0.399 N 
ATOM     38  HN2 UNL     1      23.916  21.716  -9.304  1.00  0.00     0.156 HD
ATOM     39  HN1 UNL     1      24.807  21.349 -10.771  1.00  0.00     0.156 HD
ENDBRANCH  34  37
ENDBRANCH  28  31
ENDBRANCH  23  28
ENDBRANCH  22  23
ENDBRANCH   1  22
TORSDOF 14
ENDMDL
MODEL 16
REMARK VINA RESULT:    -7.844      3.209      8.847
REMARK INTER + INTRA:         -15.446
REMARK INTER:                 -13.889
REMARK INTRA:                  -1.557
REMARK UNBOUND:                -1.641
REMARK  14 active torsions:
REMARK  status: ('A' for Active; 'I' for Inactive)
REMARK       I    between atoms: C_3  and  N_26 
REMARK    1  A    between atoms: C_3  and  O_32 
REMARK    2  A    between atoms: C_4  and  O_32 
REMARK    3  A    between atoms: C_5  and  N_26 
REMARK    4  A    between atoms: C_5  and  C_6 
REMARK    5  A    between atoms: C_5  and  C_7 
REMARK    6  A    between atoms: C_6  and  O_34 
REMARK    7  A    between atoms: C_6  and  C_14 
REMARK    8  A    between atoms: C_7  and  C_8 
REMARK    9  A    between atoms: C_14  and  N_28 
REMARK   10  A    between atoms: C_15  and  N_28 
REMARK   11  A    between atoms: C_15  and  C_16 
REMARK   12  A    between atoms: C_17  and  S_39 
REMARK   13  A    between atoms: C_20  and  N_29 
REMARK   14  A    between atoms: N_28  and  S_39 
ROOT
HETATM    1  C   UNL     1      14.318  17.558 -11.103  1.00  0.00     0.160 C 
ENDROOT
BRANCH   1   2
HETATM    2  C   UNL     1      13.273  17.076 -10.086  1.00  0.00     0.121 C 
BRANCH   2   3
HETATM    3  N   UNL     1      12.518  15.971 -10.663  1.00  0.00    -0.329 N 
HETATM    4  C   UNL     1      11.189  15.941 -10.640  1.00  0.00     0.361 C 
HETATM    5  O   UNL     1      10.453  16.767 -10.116  1.00  0.00    -0.238 OA
ATOM      6  HN  UNL     1      13.024  15.199 -11.097  1.00  0.00     0.165 HD
BRANCH   4   7
HETATM    7  O   UNL     1      10.755  14.811 -11.277  1.00  0.00    -0.296 OA
BRANCH   7   8
HETATM    8  C   UNL     1      11.549  13.680 -11.010  1.00  0.00     0.159 C 
HETATM    9  C   UNL     1      10.983  12.833  -9.850  1.00  0.00     0.061 C 
HETATM   10  C   UNL     1       9.743  12.278 -10.521  1.00  0.00     0.170 C 
HETATM   11  O   UNL     1      10.116  12.025 -11.892  1.00  0.00    -0.389 OA
HETATM   12  C   UNL     1      11.386  12.660 -12.157  1.00  0.00     0.200 C 
ENDBRANCH   7   8
ENDBRANCH   4   7
ENDBRANCH   2   3
BRANCH   2  13
HETATM   13  C   UNL     1      13.867  16.654  -8.734  1.00  0.00     0.066 C 
BRANCH  13  14
HETATM   14  C   UNL     1      13.716  17.744  -7.689  1.00  0.00    -0.056 A 
HETATM   15  C   UNL     1      12.610  18.582  -7.687  1.00  0.00     0.007 A 
HETATM   16  C   UNL     1      12.485  19.587  -6.740  1.00  0.00     0.001 A 
HETATM   17  C   UNL     1      13.461  19.766  -5.787  1.00  0.00     0.000 A 
HETATM   18  C   UNL     1      14.560  18.940  -5.771  1.00  0.00     0.001 A 
HETATM   19  C   UNL     1      14.687  17.937  -6.720  1.00  0.00     0.007 A 
ENDBRANCH  13  14
ENDBRANCH   2  13
ENDBRANCH   1   2
BRANCH   1  20
HETATM   20  O   UNL     1      15.437  16.671 -11.155  1.00  0.00    -0.392 OA
ATOM     21  HO  UNL     1      15.183  15.785 -10.928  1.00  0.00     0.210 HD
ENDBRANCH   1  20
BRANCH   1  22
HETATM   22  C   UNL     1      14.858  18.924 -10.725  1.00  0.00     0.169 C 
BRANCH  22  23
HETATM   23  N   UNL     1      16.028  19.391 -11.478  1.00  0.00    -0.304 N 
BRANCH  23  24
HETATM   24  C   UNL     1      15.830  19.479 -12.932  1.00  0.00     0.139 C 
BRANCH  24  25
HETATM   25  C   UNL     1      16.913  20.221 -13.687  1.00  0.00    -0.004 C 
HETATM   26  C   UNL     1      16.694  21.695 -13.803  1.00  0.00     0.011 C 
HETATM   27  C   UNL     1      17.005  19.574 -15.085  1.00  0.00     0.011 C 
ENDBRANCH  24  25
ENDBRANCH  23  24
BRANCH  23  28
HETATM   28  S   UNL     1      17.509  18.960 -10.951  1.00  0.00     0.260 S 
HETATM   29  O   UNL     1      18.130  18.185 -11.977  1.00  0.00    -0.200 OA
HETATM   30  O   UNL     1      17.306  18.373  -9.665  1.00  0.00    -0.200 OA
BRANCH  28  31
HETATM   31  C   UNL     1      18.435  20.446 -10.732  1.00  0.00     0.079 A 
HETATM   32  C   UNL     1      17.818  21.586 -10.229  1.00  0.00     0.027 A 
HETATM   33  C   UNL     1      18.558  22.743 -10.059  1.00  0.00     0.030 A 
HETATM   34  C   UNL     1      19.925  22.778 -10.376  1.00  0.00     0.025 A 
HETATM   35  C   UNL     1      20.530  21.615 -10.870  1.00  0.00     0.030 A 
HETATM   36  C   UNL     1      19.790  20.462 -11.052  1.00  0.00     0.027 A 
BRANCH  34  37
HETATM   37  N   UNL     1      20.661  23.930 -10.204  1.00  0.00    -0.399 N 
ATOM     38  HN2 UNL     1      20.298  24.829 -10.524  1.00  0.00     0.156 HD
ATOM     39  HN1 UNL     1      21.577  23.903  -9.756  1.00  0.00     0.156 HD
ENDBRANCH  34  37
ENDBRANCH  28  31
ENDBRANCH  23  28
ENDBRANCH  22  23
ENDBRANCH   1  22
TORSDOF 14
ENDMDL
MODEL 17
REMARK VINA RESULT:    -7.827      2.480      8.292
REMARK INTER + INTRA:         -15.417
REMARK INTER:                 -13.337
REMARK INTRA:                  -2.080
REMARK UNBOUND:                -1.641
REMARK  14 active torsions:
REMARK  status: ('A' for Active; 'I' for Inactive)
REMARK       I    between atoms: C_3  and  N_26 
REMARK    1  A    between atoms: C_3  and  O_32 
REMARK    2  A    between atoms: C_4  and  O_32 
REMARK    3  A    between atoms: C_5  and  N_26 
REMARK    4  A    between atoms: C_5  and  C_6 
REMARK    5  A    between atoms: C_5  and  C_7 
REMARK    6  A    between atoms: C_6  and  O_34 
REMARK    7  A    between atoms: C_6  and  C_14 
REMARK    8  A    between atoms: C_7  and  C_8 
REMARK    9  A    between atoms: C_14  and  N_28 
REMARK   10  A    between atoms: C_15  and  N_28 
REMARK   11  A    between atoms: C_15  and  C_16 
REMARK   12  A    between atoms: C_17  and  S_39 
REMARK   13  A    between atoms: C_20  and  N_29 
REMARK   14  A    between atoms: N_28  and  S_39 
ROOT
HETATM    1  C   UNL     1      10.675  15.703 -12.642  1.00  0.00     0.160 C 
ENDROOT
BRANCH   1   2
HETATM    2  C   UNL     1      10.755  14.172 -12.549  1.00  0.00     0.121 C 
BRANCH   2   3
HETATM    3  N   UNL     1       9.964  13.719 -11.412  1.00  0.00    -0.329 N 
HETATM    4  C   UNL     1      10.418  12.806 -10.559  1.00  0.00     0.361 C 
HETATM    5  O   UNL     1      11.486  12.213 -10.632  1.00  0.00    -0.238 OA
ATOM      6  HN  UNL     1       9.035  14.115 -11.267  1.00  0.00     0.165 HD
BRANCH   4   7
HETATM    7  O   UNL     1       9.484  12.601  -9.581  1.00  0.00    -0.296 OA
BRANCH   7   8
HETATM    8  C   UNL     1       9.091  11.255  -9.459  1.00  0.00     0.159 C 
HETATM    9  C   UNL     1       9.479  10.657  -8.090  1.00  0.00     0.061 C 
HETATM   10  C   UNL     1       8.518  11.417  -7.198  1.00  0.00     0.170 C 
HETATM   11  O   UNL     1       7.296  11.546  -7.955  1.00  0.00    -0.389 OA
HETATM   12  C   UNL     1       7.555  11.182  -9.329  1.00  0.00     0.200 C 
ENDBRANCH   7   8
ENDBRANCH   4   7
ENDBRANCH   2   3
BRANCH   2  13
HETATM   13  C   UNL     1      10.301  13.446 -13.824  1.00  0.00     0.066 C 
BRANCH  13  14
HETATM   14  C   UNL     1      11.292  12.376 -14.244  1.00  0.00    -0.056 A 
HETATM   15  C   UNL     1      12.573  12.713 -14.658  1.00  0.00     0.007 A 
HETATM   16  C   UNL     1      13.469  11.732 -15.057  1.00  0.00     0.001 A 
HETATM   17  C   UNL     1      13.096  10.408 -15.045  1.00  0.00     0.000 A 
HETATM   18  C   UNL     1      11.834  10.056 -14.631  1.00  0.00     0.001 A 
HETATM   19  C   UNL     1      10.936  11.037 -14.236  1.00  0.00     0.007 A 
ENDBRANCH  13  14
ENDBRANCH   2  13
ENDBRANCH   1   2
BRANCH   1  20
HETATM   20  O   UNL     1      10.059  16.116 -13.862  1.00  0.00    -0.392 OA
ATOM     21  HO  UNL     1       9.149  15.847 -13.897  1.00  0.00     0.210 HD
ENDBRANCH   1  20
BRANCH   1  22
HETATM   22  C   UNL     1      12.058  16.324 -12.616  1.00  0.00     0.169 C 
BRANCH  22  23
HETATM   23  N   UNL     1      12.409  17.077 -11.406  1.00  0.00    -0.304 N 
BRANCH  23  24
HETATM   24  C   UNL     1      13.542  18.001 -11.562  1.00  0.00     0.139 C 
BRANCH  24  25
HETATM   25  C   UNL     1      14.752  17.426 -12.267  1.00  0.00    -0.004 C 
HETATM   26  C   UNL     1      15.955  17.248 -11.398  1.00  0.00     0.011 C 
HETATM   27  C   UNL     1      15.070  18.367 -13.448  1.00  0.00     0.011 C 
ENDBRANCH  24  25
ENDBRANCH  23  24
BRANCH  23  28
HETATM   28  S   UNL     1      12.240  16.340  -9.962  1.00  0.00     0.260 S 
HETATM   29  O   UNL     1      13.010  15.138  -9.992  1.00  0.00    -0.200 OA
HETATM   30  O   UNL     1      10.833  16.258  -9.732  1.00  0.00    -0.200 OA
BRANCH  28  31
HETATM   31  C   UNL     1      12.929  17.417  -8.746  1.00  0.00     0.079 A 
HETATM   32  C   UNL     1      14.165  17.130  -8.177  1.00  0.00     0.027 A 
HETATM   33  C   UNL     1      14.694  17.987  -7.228  1.00  0.00     0.030 A 
HETATM   34  C   UNL     1      14.006  19.147  -6.841  1.00  0.00     0.025 A 
HETATM   35  C   UNL     1      12.768  19.424  -7.434  1.00  0.00     0.030 A 
HETATM   36  C   UNL     1      12.232  18.563  -8.373  1.00  0.00     0.027 A 
BRANCH  34  37
HETATM   37  N   UNL     1      14.536  20.000  -5.896  1.00  0.00    -0.399 N 
ATOM     38  HN2 UNL     1      14.217  20.968  -5.837  1.00  0.00     0.156 HD
ATOM     39  HN1 UNL     1      15.253  19.679  -5.246  1.00  0.00     0.156 HD
ENDBRANCH  34  37
ENDBRANCH  28  31
ENDBRANCH  23  28
ENDBRANCH  22  23
ENDBRANCH   1  22
TORSDOF 14
ENDMDL
MODEL 18
REMARK VINA RESULT:    -7.770      3.535      9.029
REMARK INTER + INTRA:         -15.316
REMARK INTER:                 -13.070
REMARK INTRA:                  -2.246
REMARK UNBOUND:                -1.641
REMARK  14 active torsions:
REMARK  status: ('A' for Active; 'I' for Inactive)
REMARK       I    between atoms: C_3  and  N_26 
REMARK    1  A    between atoms: C_3  and  O_32 
REMARK    2  A    between atoms: C_4  and  O_32 
REMARK    3  A    between atoms: C_5  and  N_26 
REMARK    4  A    between atoms: C_5  and  C_6 
REMARK    5  A    between atoms: C_5  and  C_7 
REMARK    6  A    between atoms: C_6  and  O_34 
REMARK    7  A    between atoms: C_6  and  C_14 
REMARK    8  A    between atoms: C_7  and  C_8 
REMARK    9  A    between atoms: C_14  and  N_28 
REMARK   10  A    between atoms: C_15  and  N_28 
REMARK   11  A    between atoms: C_15  and  C_16 
REMARK   12  A    between atoms: C_17  and  S_39 
REMARK   13  A    between atoms: C_20  and  N_29 
REMARK   14  A    between atoms: N_28  and  S_39 
ROOT
HETATM    1  C   UNL     1      15.827  17.647 -10.488  1.00  0.00     0.160 C 
ENDROOT
BRANCH   1   2
HETATM    2  C   UNL     1      14.377  17.619  -9.982  1.00  0.00     0.121 C 
BRANCH   2   3
HETATM    3  N   UNL     1      13.541  16.938 -10.962  1.00  0.00    -0.329 N 
HETATM    4  C   UNL     1      12.269  17.274 -11.154  1.00  0.00     0.361 C 
HETATM    5  O   UNL     1      11.640  18.122 -10.535  1.00  0.00    -0.238 OA
ATOM      6  HN  UNL     1      13.943  16.183 -11.517  1.00  0.00     0.165 HD
BRANCH   4   7
HETATM    7  O   UNL     1      11.745  16.496 -12.150  1.00  0.00    -0.296 OA
BRANCH   7   8
HETATM    8  C   UNL     1      11.973  15.120 -11.960  1.00  0.00     0.159 C 
HETATM    9  C   UNL     1      10.675  14.354 -11.625  1.00  0.00     0.061 C 
HETATM   10  C   UNL     1       9.974  14.443 -12.966  1.00  0.00     0.170 C 
HETATM   11  O   UNL     1      11.010  14.322 -13.962  1.00  0.00    -0.389 OA
HETATM   12  C   UNL     1      12.297  14.465 -13.319  1.00  0.00     0.200 C 
ENDBRANCH   7   8
ENDBRANCH   4   7
ENDBRANCH   2   3
BRANCH   2  13
HETATM   13  C   UNL     1      14.210  16.960  -8.604  1.00  0.00     0.066 C 
BRANCH  13  14
HETATM   14  C   UNL     1      13.886  17.981  -7.530  1.00  0.00    -0.056 A 
HETATM   15  C   UNL     1      14.851  18.866  -7.072  1.00  0.00     0.007 A 
HETATM   16  C   UNL     1      14.554  19.786  -6.077  1.00  0.00     0.001 A 
HETATM   17  C   UNL     1      13.293  19.831  -5.531  1.00  0.00     0.000 A 
HETATM   18  C   UNL     1      12.322  18.966  -5.977  1.00  0.00     0.001 A 
HETATM   19  C   UNL     1      12.619  18.044  -6.969  1.00  0.00     0.007 A 
ENDBRANCH  13  14
ENDBRANCH   2  13
ENDBRANCH   1   2
BRANCH   1  20
HETATM   20  O   UNL     1      16.734  17.188  -9.484  1.00  0.00    -0.392 OA
ATOM     21  HO  UNL     1      17.388  17.847  -9.284  1.00  0.00     0.210 HD
ENDBRANCH   1  20
BRANCH   1  22
HETATM   22  C   UNL     1      16.251  19.056 -10.852  1.00  0.00     0.169 C 
BRANCH  22  23
HETATM   23  N   UNL     1      17.084  19.194 -12.052  1.00  0.00    -0.304 N 
BRANCH  23  24
HETATM   24  C   UNL     1      16.666  18.364 -13.192  1.00  0.00     0.139 C 
BRANCH  24  25
HETATM   25  C   UNL     1      15.503  18.908 -13.995  1.00  0.00    -0.004 C 
HETATM   26  C   UNL     1      14.403  17.927 -14.244  1.00  0.00     0.011 C 
HETATM   27  C   UNL     1      16.084  19.423 -15.328  1.00  0.00     0.011 C 
ENDBRANCH  24  25
ENDBRANCH  23  24
BRANCH  23  28
HETATM   28  S   UNL     1      18.683  19.446 -11.858  1.00  0.00     0.260 S 
HETATM   29  O   UNL     1      19.373  18.595 -12.774  1.00  0.00    -0.200 OA
HETATM   30  O   UNL     1      18.930  19.304 -10.459  1.00  0.00    -0.200 OA
BRANCH  28  31
HETATM   31  C   UNL     1      19.002  21.123 -12.301  1.00  0.00     0.079 A 
HETATM   32  C   UNL     1      19.643  21.972 -11.405  1.00  0.00     0.027 A 
HETATM   33  C   UNL     1      19.891  23.285 -11.769  1.00  0.00     0.030 A 
HETATM   34  C   UNL     1      19.515  23.766 -13.032  1.00  0.00     0.025 A 
HETATM   35  C   UNL     1      18.881  22.891 -13.924  1.00  0.00     0.030 A 
HETATM   36  C   UNL     1      18.622  21.584 -13.559  1.00  0.00     0.027 A 
BRANCH  34  37
HETATM   37  N   UNL     1      19.764  25.073 -13.393  1.00  0.00    -0.399 N 
ATOM     38  HN2 UNL     1      19.033  25.638 -13.828  1.00  0.00     0.156 HD
ATOM     39  HN1 UNL     1      20.679  25.495 -13.233  1.00  0.00     0.156 HD
ENDBRANCH  34  37
ENDBRANCH  28  31
ENDBRANCH  23  28
ENDBRANCH  22  23
ENDBRANCH   1  22
TORSDOF 14
ENDMDL
MODEL 19
REMARK VINA RESULT:    -7.766      3.799      7.252
REMARK INTER + INTRA:         -15.309
REMARK INTER:                 -12.641
REMARK INTRA:                  -2.668
REMARK UNBOUND:                -1.641
REMARK  14 active torsions:
REMARK  status: ('A' for Active; 'I' for Inactive)
REMARK       I    between atoms: C_3  and  N_26 
REMARK    1  A    between atoms: C_3  and  O_32 
REMARK    2  A    between atoms: C_4  and  O_32 
REMARK    3  A    between atoms: C_5  and  N_26 
REMARK    4  A    between atoms: C_5  and  C_6 
REMARK    5  A    between atoms: C_5  and  C_7 
REMARK    6  A    between atoms: C_6  and  O_34 
REMARK    7  A    between atoms: C_6  and  C_14 
REMARK    8  A    between atoms: C_7  and  C_8 
REMARK    9  A    between atoms: C_14  and  N_28 
REMARK   10  A    between atoms: C_15  and  N_28 
REMARK   11  A    between atoms: C_15  and  C_16 
REMARK   12  A    between atoms: C_17  and  S_39 
REMARK   13  A    between atoms: C_20  and  N_29 
REMARK   14  A    between atoms: N_28  and  S_39 
ROOT
HETATM    1  C   UNL     1      16.087  21.019 -11.424  1.00  0.00     0.160 C 
ENDROOT
BRANCH   1   2
HETATM    2  C   UNL     1      16.962  20.767 -10.187  1.00  0.00     0.121 C 
BRANCH   2   3
HETATM    3  N   UNL     1      16.164  20.107  -9.163  1.00  0.00    -0.329 N 
HETATM    4  C   UNL     1      15.528  20.792  -8.217  1.00  0.00     0.361 C 
HETATM    5  O   UNL     1      15.560  22.005  -8.053  1.00  0.00    -0.238 OA
ATOM      6  HN  UNL     1      16.090  19.089  -9.171  1.00  0.00     0.165 HD
BRANCH   4   7
HETATM    7  O   UNL     1      14.836  19.922  -7.420  1.00  0.00    -0.296 OA
BRANCH   7   8
HETATM    8  C   UNL     1      14.297  18.829  -8.124  1.00  0.00     0.159 C 
HETATM    9  C   UNL     1      14.661  17.479  -7.472  1.00  0.00     0.061 C 
HETATM   10  C   UNL     1      13.825  17.570  -6.211  1.00  0.00     0.170 C 
HETATM   11  O   UNL     1      12.600  18.228  -6.598  1.00  0.00    -0.389 OA
HETATM   12  C   UNL     1      12.768  18.794  -7.917  1.00  0.00     0.200 C 
ENDBRANCH   7   8
ENDBRANCH   4   7
ENDBRANCH   2   3
BRANCH   2  13
HETATM   13  C   UNL     1      18.227  19.944 -10.475  1.00  0.00     0.066 C 
BRANCH  13  14
HETATM   14  C   UNL     1      19.432  20.833 -10.719  1.00  0.00    -0.056 A 
HETATM   15  C   UNL     1      19.374  22.197 -10.469  1.00  0.00     0.007 A 
HETATM   16  C   UNL     1      20.474  23.008 -10.710  1.00  0.00     0.001 A 
HETATM   17  C   UNL     1      21.639  22.467 -11.199  1.00  0.00     0.000 A 
HETATM   18  C   UNL     1      21.716  21.116 -11.444  1.00  0.00     0.001 A 
HETATM   19  C   UNL     1      20.616  20.306 -11.208  1.00  0.00     0.007 A 
ENDBRANCH  13  14
ENDBRANCH   2  13
ENDBRANCH   1   2
BRANCH   1  20
HETATM   20  O   UNL     1      15.232  22.147 -11.231  1.00  0.00    -0.392 OA
ATOM     21  HO  UNL     1      14.353  21.970 -11.544  1.00  0.00     0.210 HD
ENDBRANCH   1  20
BRANCH   1  22
HETATM   22  C   UNL     1      15.189  19.831 -11.708  1.00  0.00     0.169 C 
BRANCH  22  23
HETATM   23  N   UNL     1      15.762  18.770 -12.545  1.00  0.00    -0.304 N 
BRANCH  23  24
HETATM   24  C   UNL     1      15.617  18.980 -13.993  1.00  0.00     0.139 C 
BRANCH  24  25
HETATM   25  C   UNL     1      16.860  19.478 -14.700  1.00  0.00    -0.004 C 
HETATM   26  C   UNL     1      18.138  19.232 -13.964  1.00  0.00     0.011 C 
HETATM   27  C   UNL     1      16.658  20.988 -14.947  1.00  0.00     0.011 C 
ENDBRANCH  24  25
ENDBRANCH  23  24
BRANCH  23  28
HETATM   28  S   UNL     1      15.689  17.234 -12.002  1.00  0.00     0.260 S 
HETATM   29  O   UNL     1      16.217  17.214 -10.675  1.00  0.00    -0.200 OA
HETATM   30  O   UNL     1      16.314  16.438 -13.010  1.00  0.00    -0.200 OA
BRANCH  28  31
HETATM   31  C   UNL     1      13.983  16.788 -11.934  1.00  0.00     0.079 A 
HETATM   32  C   UNL     1      13.388  16.489 -10.714  1.00  0.00     0.027 A 
HETATM   33  C   UNL     1      12.047  16.145 -10.676  1.00  0.00     0.030 A 
HETATM   34  C   UNL     1      11.280  16.106 -11.850  1.00  0.00     0.025 A 
HETATM   35  C   UNL     1      11.896  16.423 -13.067  1.00  0.00     0.030 A 
HETATM   36  C   UNL     1      13.238  16.754 -13.109  1.00  0.00     0.027 A 
BRANCH  34  37
HETATM   37  N   UNL     1       9.945  15.765 -11.810  1.00  0.00    -0.399 N 
ATOM     38  HN2 UNL     1       9.272  16.239 -12.413  1.00  0.00     0.156 HD
ATOM     39  HN1 UNL     1       9.610  15.037 -11.180  1.00  0.00     0.156 HD
ENDBRANCH  34  37
ENDBRANCH  28  31
ENDBRANCH  23  28
ENDBRANCH  22  23
ENDBRANCH   1  22
TORSDOF 14
ENDMDL
MODEL 20
REMARK VINA RESULT:    -7.683      4.173      9.520
REMARK INTER + INTRA:         -15.162
REMARK INTER:                 -13.343
REMARK INTRA:                  -1.819
REMARK UNBOUND:                -1.641
REMARK  14 active torsions:
REMARK  status: ('A' for Active; 'I' for Inactive)
REMARK       I    between atoms: C_3  and  N_26 
REMARK    1  A    between atoms: C_3  and  O_32 
REMARK    2  A    between atoms: C_4  and  O_32 
REMARK    3  A    between atoms: C_5  and  N_26 
REMARK    4  A    between atoms: C_5  and  C_6 
REMARK    5  A    between atoms: C_5  and  C_7 
REMARK    6  A    between atoms: C_6  and  O_34 
REMARK    7  A    between atoms: C_6  and  C_14 
REMARK    8  A    between atoms: C_7  and  C_8 
REMARK    9  A    between atoms: C_14  and  N_28 
REMARK   10  A    between atoms: C_15  and  N_28 
REMARK   11  A    between atoms: C_15  and  C_16 
REMARK   12  A    between atoms: C_17  and  S_39 
REMARK   13  A    between atoms: C_20  and  N_29 
REMARK   14  A    between atoms: N_28  and  S_39 
ROOT
HETATM    1  C   UNL     1      16.120  20.397 -11.332  1.00  0.00     0.160 C 
ENDROOT
BRANCH   1   2
HETATM    2  C   UNL     1      15.164  19.509 -10.522  1.00  0.00     0.121 C 
BRANCH   2   3
HETATM    3  N   UNL     1      14.521  18.556 -11.419  1.00  0.00    -0.329 N 
HETATM    4  C   UNL     1      13.270  18.148 -11.230  1.00  0.00     0.361 C 
HETATM    5  O   UNL     1      12.536  18.460 -10.301  1.00  0.00    -0.238 OA
ATOM      6  HN  UNL     1      15.046  18.192 -12.214  1.00  0.00     0.165 HD
BRANCH   4   7
HETATM    7  O   UNL     1      12.921  17.288 -12.235  1.00  0.00    -0.296 OA
BRANCH   7   8
HETATM    8  C   UNL     1      13.206  15.942 -11.940  1.00  0.00     0.159 C 
HETATM    9  C   UNL     1      12.208  15.344 -10.926  1.00  0.00     0.061 C 
HETATM   10  C   UNL     1      10.966  15.290 -11.792  1.00  0.00     0.170 C 
HETATM   11  O   UNL     1      11.423  14.937 -13.115  1.00  0.00    -0.389 OA
HETATM   12  C   UNL     1      12.861  15.068 -13.164  1.00  0.00     0.200 C 
ENDBRANCH   7   8
ENDBRANCH   4   7
ENDBRANCH   2   3
BRANCH   2  13
HETATM   13  C   UNL     1      15.839  18.761  -9.363  1.00  0.00     0.066 C 
BRANCH  13  14
HETATM   14  C   UNL     1      15.135  19.019  -8.044  1.00  0.00    -0.056 A 
HETATM   15  C   UNL     1      14.867  20.312  -7.619  1.00  0.00     0.007 A 
HETATM   16  C   UNL     1      14.239  20.543  -6.404  1.00  0.00     0.001 A 
HETATM   17  C   UNL     1      13.872  19.487  -5.603  1.00  0.00     0.000 A 
HETATM   18  C   UNL     1      14.123  18.198  -6.012  1.00  0.00     0.001 A 
HETATM   19  C   UNL     1      14.755  17.967  -7.225  1.00  0.00     0.007 A 
ENDBRANCH  13  14
ENDBRANCH   2  13
ENDBRANCH   1   2
BRANCH   1  20
HETATM   20  O   UNL     1      15.400  21.326 -12.144  1.00  0.00    -0.392 OA
ATOM     21  HO  UNL     1      15.332  22.173 -11.721  1.00  0.00     0.210 HD
ENDBRANCH   1  20
BRANCH   1  22
HETATM   22  C   UNL     1      16.975  19.566 -12.269  1.00  0.00     0.169 C 
BRANCH  22  23
HETATM   23  N   UNL     1      18.236  20.174 -12.709  1.00  0.00    -0.304 N 
BRANCH  23  24
HETATM   24  C   UNL     1      18.380  20.308 -14.166  1.00  0.00     0.139 C 
BRANCH  24  25
HETATM   25  C   UNL     1      18.157  21.704 -14.711  1.00  0.00    -0.004 C 
HETATM   26  C   UNL     1      18.324  22.800 -13.709  1.00  0.00     0.011 C 
HETATM   27  C   UNL     1      16.734  21.726 -15.309  1.00  0.00     0.011 C 
ENDBRANCH  24  25
ENDBRANCH  23  24
BRANCH  23  28
HETATM   28  S   UNL     1      19.586  19.862 -11.851  1.00  0.00     0.260 S 
HETATM   29  O   UNL     1      20.664  19.703 -12.774  1.00  0.00    -0.200 OA
HETATM   30  O   UNL     1      19.250  18.778 -10.983  1.00  0.00    -0.200 OA
BRANCH  28  31
HETATM   31  C   UNL     1      19.907  21.280 -10.852  1.00  0.00     0.079 A 
HETATM   32  C   UNL     1      21.210  21.597 -10.487  1.00  0.00     0.027 A 
HETATM   33  C   UNL     1      21.446  22.716  -9.707  1.00  0.00     0.030 A 
HETATM   34  C   UNL     1      20.390  23.540  -9.290  1.00  0.00     0.025 A 
HETATM   35  C   UNL     1      19.086  23.210  -9.679  1.00  0.00     0.030 A 
HETATM   36  C   UNL     1      18.846  22.086 -10.447  1.00  0.00     0.027 A 
BRANCH  34  37
HETATM   37  N   UNL     1      20.627  24.655  -8.515  1.00  0.00    -0.399 N 
ATOM     38  HN2 UNL     1      19.850  25.199  -8.139  1.00  0.00     0.156 HD
ATOM     39  HN1 UNL     1      21.580  24.954  -8.306  1.00  0.00     0.156 HD
ENDBRANCH  34  37
ENDBRANCH  28  31
ENDBRANCH  23  28
ENDBRANCH  22  23
ENDBRANCH   1  22
TORSDOF 14
ENDMDL
