MODEL 1
REMARK VINA RESULT:    -7.446      0.000      0.000
REMARK INTER + INTRA:         -10.853
REMARK INTER:                 -10.276
REMARK INTRA:                  -0.577
REMARK UNBOUND:                -0.577
REMARK  7 active torsions:
REMARK  status: ('A' for Active; 'I' for Inactive)
REMARK    1  A    between atoms: P_1  and  O_8 
REMARK    2  A    between atoms: P_5  and  O_9 
REMARK    3  A    between atoms: P_5  and  O_8 
REMARK    4  A    between atoms: O_9  and  C_10 
REMARK    5  A    between atoms: C_10  and  C_11 
REMARK    6  A    between atoms: C_13  and  O_14 
REMARK    7  A    between atoms: C_17  and  N_18 
ROOT
HETATM    1  C   UNL     1      31.647 -10.123   7.955  1.00  0.00     0.177 C 
HETATM    2  O   UNL     1      30.450  -9.830   8.713  1.00  0.00    -0.356 OA
HETATM    3  C   UNL     1      31.198 -10.146   6.490  1.00  0.00     0.153 C 
HETATM    4  C   UNL     1      29.761 -10.632   6.554  1.00  0.00     0.088 C 
HETATM    5  C   UNL     1      29.287 -10.150   7.925  1.00  0.00     0.233 C 
ENDROOT
BRANCH   5   6
HETATM    6  N   UNL     1      28.494  -8.921   7.722  1.00  0.00    -0.300 N 
HETATM    7  C   UNL     1      28.889  -7.631   7.911  1.00  0.00     0.188 A 
HETATM    8  N   UNL     1      27.829  -6.779   7.764  1.00  0.00    -0.346 N 
HETATM    9  C   UNL     1      26.726  -7.521   7.519  1.00  0.00     0.122 A 
ATOM     10  HN  UNL     1      27.866  -5.762   7.828  1.00  0.00     0.167 HD
HETATM   11  C   UNL     1      25.305  -7.288   7.179  1.00  0.00     0.131 A 
HETATM   12  C   UNL     1      27.190  -8.928   7.463  1.00  0.00     0.142 A 
HETATM   13  N   UNL     1      24.733  -6.058   7.155  1.00  0.00    -0.383 N 
HETATM   14  N   UNL     1      24.565  -8.377   6.864  1.00  0.00    -0.337 N 
ATOM     15  HN2 UNL     1      25.290  -5.237   7.392  1.00  0.00     0.157 HD
ATOM     16  HN1 UNL     1      23.753  -5.897   6.921  1.00  0.00     0.157 HD
HETATM   17  C   UNL     1      25.048  -9.629   6.908  1.00  0.00     0.183 A 
ATOM     18  HN  UNL     1      23.595  -8.240   6.581  1.00  0.00     0.168 HD
HETATM   19  N   UNL     1      26.324  -9.912   7.195  1.00  0.00    -0.336 N 
ATOM     20  HN  UNL     1      26.638 -10.882   7.209  1.00  0.00     0.168 HD
ENDBRANCH   5   6
BRANCH   1  21
HETATM   21  C   UNL     1      32.721  -9.074   8.214  1.00  0.00     0.216 C 
BRANCH  21  22
HETATM   22  O   UNL     1      33.950  -9.765   8.398  1.00  0.00    -0.287 OA
BRANCH  22  23
HETATM   23  P   UNL     1      35.193  -9.176   9.267  1.00  0.00     0.418 P 
HETATM   24  O   UNL     1      36.026  -8.323   8.347  1.00  0.00    -0.624 OA
HETATM   25  O   UNL     1      34.589  -8.370  10.387  1.00  0.00    -0.624 OA
BRANCH  23  26
HETATM   26  O   UNL     1      36.143 -10.391   9.765  1.00  0.00    -0.173 OA
BRANCH  26  27
HETATM   27  P   UNL     1      36.364 -10.966  11.262  1.00  0.00     0.431 P 
HETATM   28  O   UNL     1      36.559  -9.830  12.242  1.00  0.00    -0.616 OA
HETATM   29  O   UNL     1      35.109 -11.735  11.591  1.00  0.00    -0.616 OA
HETATM   30  O   UNL     1      37.588 -11.841  11.297  1.00  0.00    -0.616 OA
ENDBRANCH  26  27
ENDBRANCH  23  26
ENDBRANCH  22  23
ENDBRANCH  21  22
ENDBRANCH   1  21
BRANCH   3  31
HETATM   31  O   UNL     1      31.970 -11.039   5.688  1.00  0.00    -0.393 OA
ATOM     32  HO  UNL     1      32.417 -11.702   6.201  1.00  0.00     0.210 HD
ENDBRANCH   3  31
TORSDOF 7
ENDMDL
MODEL 2
REMARK VINA RESULT:    -7.289      3.710      5.727
REMARK INTER + INTRA:         -10.636
REMARK INTER:                  -9.405
REMARK INTRA:                  -1.230
REMARK UNBOUND:                -0.577
REMARK  7 active torsions:
REMARK  status: ('A' for Active; 'I' for Inactive)
REMARK    1  A    between atoms: P_1  and  O_8 
REMARK    2  A    between atoms: P_5  and  O_9 
REMARK    3  A    between atoms: P_5  and  O_8 
REMARK    4  A    between atoms: O_9  and  C_10 
REMARK    5  A    between atoms: C_10  and  C_11 
REMARK    6  A    between atoms: C_13  and  O_14 
REMARK    7  A    between atoms: C_17  and  N_18 
ROOT
HETATM    1  C   UNL     1      29.904 -10.017   5.249  1.00  0.00     0.177 C 
HETATM    2  O   UNL     1      29.465 -11.181   4.511  1.00  0.00    -0.356 OA
HETATM    3  C   UNL     1      28.922  -9.890   6.419  1.00  0.00     0.153 C 
HETATM    4  C   UNL     1      27.621 -10.448   5.868  1.00  0.00     0.088 C 
HETATM    5  C   UNL     1      28.088 -11.463   4.825  1.00  0.00     0.233 C 
ENDROOT
BRANCH   5   6
HETATM    6  N   UNL     1      28.000 -12.806   5.433  1.00  0.00    -0.300 N 
HETATM    7  C   UNL     1      27.214 -13.202   6.473  1.00  0.00     0.188 A 
HETATM    8  N   UNL     1      27.522 -14.481   6.846  1.00  0.00    -0.346 N 
HETATM    9  C   UNL     1      28.545 -14.908   6.073  1.00  0.00     0.122 A 
ATOM     10  HN  UNL     1      27.060 -15.018   7.581  1.00  0.00     0.167 HD
HETATM   11  C   UNL     1      29.305 -16.160   5.857  1.00  0.00     0.131 A 
HETATM   12  C   UNL     1      28.824 -13.802   5.126  1.00  0.00     0.142 A 
HETATM   13  N   UNL     1      29.145 -17.273   6.618  1.00  0.00    -0.383 N 
HETATM   14  N   UNL     1      30.187 -16.171   4.831  1.00  0.00    -0.337 N 
ATOM     15  HN2 UNL     1      28.480 -17.265   7.391  1.00  0.00     0.157 HD
ATOM     16  HN1 UNL     1      29.669 -18.135   6.469  1.00  0.00     0.157 HD
HETATM   17  C   UNL     1      30.431 -15.097   4.062  1.00  0.00     0.183 A 
ATOM     18  HN  UNL     1      30.689 -17.036   4.631  1.00  0.00     0.168 HD
HETATM   19  N   UNL     1      29.774 -13.939   4.193  1.00  0.00    -0.336 N 
ATOM     20  HN  UNL     1      29.997 -13.156   3.578  1.00  0.00     0.168 HD
ENDBRANCH   5   6
BRANCH   1  21
HETATM   21  C   UNL     1      31.343 -10.185   5.718  1.00  0.00     0.216 C 
BRANCH  21  22
HETATM   22  O   UNL     1      31.665  -9.047   6.508  1.00  0.00    -0.287 OA
BRANCH  22  23
HETATM   23  P   UNL     1      32.272  -9.139   8.015  1.00  0.00     0.418 P 
HETATM   24  O   UNL     1      31.815  -7.914   8.764  1.00  0.00    -0.624 OA
HETATM   25  O   UNL     1      31.724 -10.405   8.621  1.00  0.00    -0.624 OA
BRANCH  23  26
HETATM   26  O   UNL     1      33.890  -9.077   7.963  1.00  0.00    -0.173 OA
BRANCH  26  27
HETATM   27  P   UNL     1      34.962  -9.394   9.134  1.00  0.00     0.431 P 
HETATM   28  O   UNL     1      34.696 -10.756   9.738  1.00  0.00    -0.616 OA
HETATM   29  O   UNL     1      36.313  -9.370   8.466  1.00  0.00    -0.616 OA
HETATM   30  O   UNL     1      34.850  -8.361  10.222  1.00  0.00    -0.616 OA
ENDBRANCH  26  27
ENDBRANCH  23  26
ENDBRANCH  22  23
ENDBRANCH  21  22
ENDBRANCH   1  21
BRANCH   3  31
HETATM   31  O   UNL     1      28.726  -8.538   6.832  1.00  0.00    -0.393 OA
ATOM     32  HO  UNL     1      27.889  -8.185   6.553  1.00  0.00     0.210 HD
ENDBRANCH   3  31
TORSDOF 7
ENDMDL
MODEL 3
REMARK VINA RESULT:    -7.228      9.474     11.938
REMARK INTER + INTRA:         -10.551
REMARK INTER:                  -9.611
REMARK INTRA:                  -0.940
REMARK UNBOUND:                -0.577
REMARK  7 active torsions:
REMARK  status: ('A' for Active; 'I' for Inactive)
REMARK    1  A    between atoms: P_1  and  O_8 
REMARK    2  A    between atoms: P_5  and  O_9 
REMARK    3  A    between atoms: P_5  and  O_8 
REMARK    4  A    between atoms: O_9  and  C_10 
REMARK    5  A    between atoms: C_10  and  C_11 
REMARK    6  A    between atoms: C_13  and  O_14 
REMARK    7  A    between atoms: C_17  and  N_18 
ROOT
HETATM    1  C   UNL     1      37.985 -12.921   9.569  1.00  0.00     0.177 C 
HETATM    2  O   UNL     1      39.339 -13.427   9.512  1.00  0.00    -0.356 OA
HETATM    3  C   UNL     1      37.101 -14.090   9.123  1.00  0.00     0.153 C 
HETATM    4  C   UNL     1      37.974 -14.859   8.147  1.00  0.00     0.088 C 
HETATM    5  C   UNL     1      39.392 -14.574   8.643  1.00  0.00     0.233 C 
ENDROOT
BRANCH   5   6
HETATM    6  N   UNL     1      39.840 -15.746   9.422  1.00  0.00    -0.300 N 
HETATM    7  C   UNL     1      39.966 -15.851  10.775  1.00  0.00     0.188 A 
HETATM    8  N   UNL     1      40.552 -17.040  11.110  1.00  0.00    -0.346 N 
HETATM    9  C   UNL     1      40.849 -17.698   9.967  1.00  0.00     0.122 A 
ATOM     10  HN  UNL     1      40.732 -17.372  12.058  1.00  0.00     0.167 HD
HETATM   11  C   UNL     1      41.386 -19.019   9.575  1.00  0.00     0.131 A 
HETATM   12  C   UNL     1      40.343 -16.843   8.867  1.00  0.00     0.142 A 
HETATM   13  N   UNL     1      41.860 -19.929  10.463  1.00  0.00    -0.383 N 
HETATM   14  N   UNL     1      41.376 -19.316   8.254  1.00  0.00    -0.337 N 
ATOM     15  HN2 UNL     1      41.867 -19.707  11.459  1.00  0.00     0.157 HD
ATOM     16  HN1 UNL     1      42.230 -20.840  10.192  1.00  0.00     0.157 HD
HETATM   17  C   UNL     1      40.963 -18.451   7.312  1.00  0.00     0.183 A 
ATOM     18  HN  UNL     1      41.697 -20.238   7.960  1.00  0.00     0.168 HD
HETATM   19  N   UNL     1      40.456 -17.246   7.596  1.00  0.00    -0.336 N 
ATOM     20  HN  UNL     1      40.154 -16.632   6.840  1.00  0.00     0.168 HD
ENDBRANCH   5   6
BRANCH   1  21
HETATM   21  C   UNL     1      37.646 -12.444  10.976  1.00  0.00     0.216 C 
BRANCH  21  22
HETATM   22  O   UNL     1      37.296 -11.068  10.881  1.00  0.00    -0.287 OA
BRANCH  22  23
HETATM   23  P   UNL     1      36.125 -10.373  11.771  1.00  0.00     0.418 P 
HETATM   24  O   UNL     1      35.148 -11.452  12.158  1.00  0.00    -0.624 OA
HETATM   25  O   UNL     1      36.801  -9.770  12.975  1.00  0.00    -0.624 OA
BRANCH  23  26
HETATM   26  O   UNL     1      35.307  -9.304  10.868  1.00  0.00    -0.173 OA
BRANCH  26  27
HETATM   27  P   UNL     1      34.832  -9.422   9.325  1.00  0.00     0.431 P 
HETATM   28  O   UNL     1      33.447  -8.839   9.152  1.00  0.00    -0.616 OA
HETATM   29  O   UNL     1      35.839  -8.632   8.529  1.00  0.00    -0.616 OA
HETATM   30  O   UNL     1      34.795 -10.869   8.913  1.00  0.00    -0.616 OA
ENDBRANCH  26  27
ENDBRANCH  23  26
ENDBRANCH  22  23
ENDBRANCH  21  22
ENDBRANCH   1  21
BRANCH   3  31
HETATM   31  O   UNL     1      35.909 -13.663   8.466  1.00  0.00    -0.393 OA
ATOM     32  HO  UNL     1      35.167 -14.230   8.642  1.00  0.00     0.210 HD
ENDBRANCH   3  31
TORSDOF 7
ENDMDL
MODEL 4
REMARK VINA RESULT:    -7.225      7.755     10.823
REMARK INTER + INTRA:         -10.547
REMARK INTER:                  -9.462
REMARK INTRA:                  -1.085
REMARK UNBOUND:                -0.577
REMARK  7 active torsions:
REMARK  status: ('A' for Active; 'I' for Inactive)
REMARK    1  A    between atoms: P_1  and  O_8 
REMARK    2  A    between atoms: P_5  and  O_9 
REMARK    3  A    between atoms: P_5  and  O_8 
REMARK    4  A    between atoms: O_9  and  C_10 
REMARK    5  A    between atoms: C_10  and  C_11 
REMARK    6  A    between atoms: C_13  and  O_14 
REMARK    7  A    between atoms: C_17  and  N_18 
ROOT
HETATM    1  C   UNL     1      35.315 -12.388  10.344  1.00  0.00     0.177 C 
HETATM    2  O   UNL     1      36.038 -13.574   9.937  1.00  0.00    -0.356 OA
HETATM    3  C   UNL     1      36.320 -11.565  11.156  1.00  0.00     0.153 C 
HETATM    4  C   UNL     1      37.217 -12.610  11.796  1.00  0.00     0.088 C 
HETATM    5  C   UNL     1      37.173 -13.770  10.800  1.00  0.00     0.233 C 
ENDROOT
BRANCH   5   6
HETATM    6  N   UNL     1      38.407 -13.714   9.990  1.00  0.00    -0.300 N 
HETATM    7  C   UNL     1      38.725 -12.818   9.014  1.00  0.00     0.188 A 
HETATM    8  N   UNL     1      39.885 -13.183   8.389  1.00  0.00    -0.346 N 
HETATM    9  C   UNL     1      40.306 -14.347   8.932  1.00  0.00     0.122 A 
ATOM     10  HN  UNL     1      40.352 -12.666   7.644  1.00  0.00     0.167 HD
HETATM   11  C   UNL     1      41.478 -15.243   8.825  1.00  0.00     0.131 A 
HETATM   12  C   UNL     1      39.335 -14.665  10.007  1.00  0.00     0.142 A 
HETATM   13  N   UNL     1      42.471 -15.073   7.915  1.00  0.00    -0.383 N 
HETATM   14  N   UNL     1      41.546 -16.269   9.706  1.00  0.00    -0.337 N 
ATOM     15  HN2 UNL     1      42.420 -14.299   7.252  1.00  0.00     0.157 HD
ATOM     16  HN1 UNL     1      43.279 -15.691   7.842  1.00  0.00     0.157 HD
HETATM   17  C   UNL     1      40.583 -16.528  10.606  1.00  0.00     0.183 A 
ATOM     18  HN  UNL     1      42.367 -16.874   9.684  1.00  0.00     0.168 HD
HETATM   19  N   UNL     1      39.503 -15.755  10.765  1.00  0.00    -0.336 N 
ATOM     20  HN  UNL     1      38.805 -15.996  11.468  1.00  0.00     0.168 HD
ENDBRANCH   5   6
BRANCH   1  21
HETATM   21  C   UNL     1      34.795 -11.630   9.129  1.00  0.00     0.216 C 
BRANCH  21  22
HETATM   22  O   UNL     1      34.011 -10.546   9.614  1.00  0.00    -0.287 OA
BRANCH  22  23
HETATM   23  P   UNL     1      34.289  -8.990   9.227  1.00  0.00     0.418 P 
HETATM   24  O   UNL     1      34.863  -8.315  10.446  1.00  0.00    -0.624 OA
HETATM   25  O   UNL     1      35.265  -9.001   8.080  1.00  0.00    -0.624 OA
BRANCH  23  26
HETATM   26  O   UNL     1      32.889  -8.244   8.897  1.00  0.00    -0.173 OA
BRANCH  26  27
HETATM   27  P   UNL     1      31.656  -8.749   7.977  1.00  0.00     0.431 P 
HETATM   28  O   UNL     1      30.784  -7.580   7.574  1.00  0.00    -0.616 OA
HETATM   29  O   UNL     1      32.287  -9.378   6.761  1.00  0.00    -0.616 OA
HETATM   30  O   UNL     1      30.813  -9.729   8.748  1.00  0.00    -0.616 OA
ENDBRANCH  26  27
ENDBRANCH  23  26
ENDBRANCH  22  23
ENDBRANCH  21  22
ENDBRANCH   1  21
BRANCH   3  31
HETATM   31  O   UNL     1      35.699 -10.781  12.173  1.00  0.00    -0.393 OA
ATOM     32  HO  UNL     1      34.908 -11.180  12.515  1.00  0.00     0.210 HD
ENDBRANCH   3  31
TORSDOF 7
ENDMDL
MODEL 5
REMARK VINA RESULT:    -7.195      2.552      4.918
REMARK INTER + INTRA:         -10.506
REMARK INTER:                  -9.039
REMARK INTRA:                  -1.467
REMARK UNBOUND:                -0.577
REMARK  7 active torsions:
REMARK  status: ('A' for Active; 'I' for Inactive)
REMARK    1  A    between atoms: P_1  and  O_8 
REMARK    2  A    between atoms: P_5  and  O_9 
REMARK    3  A    between atoms: P_5  and  O_8 
REMARK    4  A    between atoms: O_9  and  C_10 
REMARK    5  A    between atoms: C_10  and  C_11 
REMARK    6  A    between atoms: C_13  and  O_14 
REMARK    7  A    between atoms: C_17  and  N_18 
ROOT
HETATM    1  C   UNL     1      28.737  -7.167   6.998  1.00  0.00     0.177 C 
HETATM    2  O   UNL     1      28.561  -8.039   5.857  1.00  0.00    -0.356 OA
HETATM    3  C   UNL     1      27.592  -7.521   7.953  1.00  0.00     0.153 C 
HETATM    4  C   UNL     1      26.466  -7.953   7.031  1.00  0.00     0.088 C 
HETATM    5  C   UNL     1      27.202  -8.513   5.813  1.00  0.00     0.233 C 
ENDROOT
BRANCH   5   6
HETATM    6  N   UNL     1      27.204  -9.985   5.926  1.00  0.00    -0.300 N 
HETATM    7  C   UNL     1      26.271 -10.778   6.525  1.00  0.00     0.188 A 
HETATM    8  N   UNL     1      26.697 -12.077   6.557  1.00  0.00    -0.346 N 
HETATM    9  C   UNL     1      27.934 -12.126   6.013  1.00  0.00     0.122 A 
ATOM     10  HN  UNL     1      26.172 -12.870   6.926  1.00  0.00     0.167 HD
HETATM   11  C   UNL     1      28.927 -13.160   5.648  1.00  0.00     0.131 A 
HETATM   12  C   UNL     1      28.237 -10.743   5.574  1.00  0.00     0.142 A 
HETATM   13  N   UNL     1      28.784 -14.476   5.949  1.00  0.00    -0.383 N 
HETATM   14  N   UNL     1      30.019 -12.745   4.963  1.00  0.00    -0.337 N 
ATOM     15  HN2 UNL     1      27.962 -14.789   6.465  1.00  0.00     0.157 HD
ATOM     16  HN1 UNL     1      29.469 -15.188   5.697  1.00  0.00     0.157 HD
HETATM   17  C   UNL     1      30.251 -11.456   4.666  1.00  0.00     0.183 A 
ATOM     18  HN  UNL     1      30.696 -13.444   4.658  1.00  0.00     0.168 HD
HETATM   19  N   UNL     1      29.392 -10.471   4.955  1.00  0.00    -0.336 N 
ATOM     20  HN  UNL     1      29.618  -9.509   4.702  1.00  0.00     0.168 HD
ENDBRANCH   5   6
BRANCH   1  21
HETATM   21  C   UNL     1      30.106  -7.378   7.634  1.00  0.00     0.216 C 
BRANCH  21  22
HETATM   22  O   UNL     1      30.287  -8.781   7.788  1.00  0.00    -0.287 OA
BRANCH  22  23
HETATM   23  P   UNL     1      31.739  -9.512   7.736  1.00  0.00     0.418 P 
HETATM   24  O   UNL     1      31.535 -10.954   8.121  1.00  0.00    -0.624 OA
HETATM   25  O   UNL     1      32.237  -9.375   6.320  1.00  0.00    -0.624 OA
BRANCH  23  26
HETATM   26  O   UNL     1      32.723  -8.866   8.849  1.00  0.00    -0.173 OA
BRANCH  26  27
HETATM   27  P   UNL     1      34.305  -9.121   9.084  1.00  0.00     0.431 P 
HETATM   28  O   UNL     1      34.801  -8.308  10.260  1.00  0.00    -0.616 OA
HETATM   29  O   UNL     1      34.440 -10.595   9.369  1.00  0.00    -0.616 OA
HETATM   30  O   UNL     1      35.076  -8.708   7.860  1.00  0.00    -0.616 OA
ENDBRANCH  26  27
ENDBRANCH  23  26
ENDBRANCH  22  23
ENDBRANCH  21  22
ENDBRANCH   1  21
BRANCH   3  31
HETATM   31  O   UNL     1      27.166  -6.411   8.742  1.00  0.00    -0.393 OA
ATOM     32  HO  UNL     1      27.474  -5.579   8.403  1.00  0.00     0.210 HD
ENDBRANCH   3  31
TORSDOF 7
ENDMDL
MODEL 6
REMARK VINA RESULT:    -7.185      3.234      5.236
REMARK INTER + INTRA:         -10.492
REMARK INTER:                  -9.663
REMARK INTRA:                  -0.829
REMARK UNBOUND:                -0.577
REMARK  7 active torsions:
REMARK  status: ('A' for Active; 'I' for Inactive)
REMARK    1  A    between atoms: P_1  and  O_8 
REMARK    2  A    between atoms: P_5  and  O_9 
REMARK    3  A    between atoms: P_5  and  O_8 
REMARK    4  A    between atoms: O_9  and  C_10 
REMARK    5  A    between atoms: C_10  and  C_11 
REMARK    6  A    between atoms: C_13  and  O_14 
REMARK    7  A    between atoms: C_17  and  N_18 
ROOT
HETATM    1  C   UNL     1      28.615  -8.176   6.605  1.00  0.00     0.177 C 
HETATM    2  O   UNL     1      28.702  -8.873   5.340  1.00  0.00    -0.356 OA
HETATM    3  C   UNL     1      28.143  -9.231   7.612  1.00  0.00     0.153 C 
HETATM    4  C   UNL     1      27.284 -10.171   6.784  1.00  0.00     0.088 C 
HETATM    5  C   UNL     1      27.893 -10.064   5.385  1.00  0.00     0.233 C 
ENDROOT
BRANCH   5   6
HETATM    6  N   UNL     1      28.760 -11.241   5.181  1.00  0.00    -0.300 N 
HETATM    7  C   UNL     1      30.043 -11.263   4.722  1.00  0.00     0.188 A 
HETATM    8  N   UNL     1      30.459 -12.551   4.526  1.00  0.00    -0.346 N 
HETATM    9  C   UNL     1      29.427 -13.374   4.818  1.00  0.00     0.122 A 
ATOM     10  HN  UNL     1      31.387 -12.840   4.214  1.00  0.00     0.167 HD
HETATM   11  C   UNL     1      29.184 -14.830   4.920  1.00  0.00     0.131 A 
HETATM   12  C   UNL     1      28.326 -12.494   5.279  1.00  0.00     0.142 A 
HETATM   13  N   UNL     1      30.100 -15.768   4.568  1.00  0.00    -0.383 N 
HETATM   14  N   UNL     1      27.982 -15.218   5.408  1.00  0.00    -0.337 N 
ATOM     15  HN2 UNL     1      31.006 -15.477   4.200  1.00  0.00     0.157 HD
ATOM     16  HN1 UNL     1      29.932 -16.772   4.637  1.00  0.00     0.157 HD
HETATM   17  C   UNL     1      27.011 -14.350   5.736  1.00  0.00     0.183 A 
ATOM     18  HN  UNL     1      27.807 -16.214   5.531  1.00  0.00     0.168 HD
HETATM   19  N   UNL     1      27.165 -13.022   5.681  1.00  0.00    -0.336 N 
ATOM     20  HN  UNL     1      26.394 -12.410   5.947  1.00  0.00     0.168 HD
ENDBRANCH   5   6
BRANCH   1  21
HETATM   21  C   UNL     1      29.962  -7.576   6.985  1.00  0.00     0.216 C 
BRANCH  21  22
HETATM   22  O   UNL     1      30.490  -8.363   8.046  1.00  0.00    -0.287 OA
BRANCH  22  23
HETATM   23  P   UNL     1      31.853  -9.242   7.923  1.00  0.00     0.418 P 
HETATM   24  O   UNL     1      31.513 -10.662   8.297  1.00  0.00    -0.624 OA
HETATM   25  O   UNL     1      32.307  -9.132   6.491  1.00  0.00    -0.624 OA
BRANCH  23  26
HETATM   26  O   UNL     1      32.944  -8.724   9.003  1.00  0.00    -0.173 OA
BRANCH  26  27
HETATM   27  P   UNL     1      34.502  -9.137   9.160  1.00  0.00     0.431 P 
HETATM   28  O   UNL     1      35.290  -8.693   7.947  1.00  0.00    -0.616 OA
HETATM   29  O   UNL     1      34.989  -8.423  10.395  1.00  0.00    -0.616 OA
HETATM   30  O   UNL     1      34.623 -10.631   9.285  1.00  0.00    -0.616 OA
ENDBRANCH  26  27
ENDBRANCH  23  26
ENDBRANCH  22  23
ENDBRANCH  21  22
ENDBRANCH   1  21
BRANCH   3  31
HETATM   31  O   UNL     1      27.363  -8.677   8.670  1.00  0.00    -0.393 OA
ATOM     32  HO  UNL     1      27.855  -8.073   9.214  1.00  0.00     0.210 HD
ENDBRANCH   3  31
TORSDOF 7
ENDMDL
MODEL 7
REMARK VINA RESULT:    -7.075      4.322      6.701
REMARK INTER + INTRA:         -10.340
REMARK INTER:                  -8.736
REMARK INTRA:                  -1.605
REMARK UNBOUND:                -0.577
REMARK  7 active torsions:
REMARK  status: ('A' for Active; 'I' for Inactive)
REMARK    1  A    between atoms: P_1  and  O_8 
REMARK    2  A    between atoms: P_5  and  O_9 
REMARK    3  A    between atoms: P_5  and  O_8 
REMARK    4  A    between atoms: O_9  and  C_10 
REMARK    5  A    between atoms: C_10  and  C_11 
REMARK    6  A    between atoms: C_13  and  O_14 
REMARK    7  A    between atoms: C_17  and  N_18 
ROOT
HETATM    1  C   UNL     1      27.952 -10.280   5.113  1.00  0.00     0.177 C 
HETATM    2  O   UNL     1      28.011 -11.578   4.476  1.00  0.00    -0.356 OA
HETATM    3  C   UNL     1      27.045 -10.475   6.334  1.00  0.00     0.153 C 
HETATM    4  C   UNL     1      26.076 -11.560   5.901  1.00  0.00     0.088 C 
HETATM    5  C   UNL     1      26.886 -12.375   4.892  1.00  0.00     0.233 C 
ENDROOT
BRANCH   5   6
HETATM    6  N   UNL     1      27.383 -13.581   5.583  1.00  0.00    -0.300 N 
HETATM    7  C   UNL     1      27.005 -14.062   6.800  1.00  0.00     0.188 A 
HETATM    8  N   UNL     1      27.797 -15.114   7.167  1.00  0.00    -0.346 N 
HETATM    9  C   UNL     1      28.726 -15.296   6.201  1.00  0.00     0.122 A 
ATOM     10  HN  UNL     1      27.703 -15.666   8.020  1.00  0.00     0.167 HD
HETATM   11  C   UNL     1      29.805 -16.259   5.888  1.00  0.00     0.131 A 
HETATM   12  C   UNL     1      28.416 -14.297   5.150  1.00  0.00     0.142 A 
HETATM   13  N   UNL     1      30.189 -17.252   6.730  1.00  0.00    -0.383 N 
HETATM   14  N   UNL     1      30.412 -16.129   4.686  1.00  0.00    -0.337 N 
ATOM     15  HN2 UNL     1      29.731 -17.351   7.636  1.00  0.00     0.157 HD
ATOM     16  HN1 UNL     1      30.933 -17.916   6.515  1.00  0.00     0.157 HD
HETATM   17  C   UNL     1      30.117 -15.146   3.819  1.00  0.00     0.183 A 
ATOM     18  HN  UNL     1      31.127 -16.808   4.426  1.00  0.00     0.168 HD
HETATM   19  N   UNL     1      29.147 -14.249   4.030  1.00  0.00    -0.336 N 
ATOM     20  HN  UNL     1      28.963 -13.526   3.335  1.00  0.00     0.168 HD
ENDBRANCH   5   6
BRANCH   1  21
HETATM   21  C   UNL     1      29.346  -9.804   5.499  1.00  0.00     0.216 C 
BRANCH  21  22
HETATM   22  O   UNL     1      29.337  -9.567   6.901  1.00  0.00    -0.287 OA
BRANCH  22  23
HETATM   23  P   UNL     1      29.668  -8.122   7.573  1.00  0.00     0.418 P 
HETATM   24  O   UNL     1      29.935  -7.151   6.453  1.00  0.00    -0.624 OA
HETATM   25  O   UNL     1      28.451  -7.733   8.373  1.00  0.00    -0.624 OA
BRANCH  23  26
HETATM   26  O   UNL     1      31.030  -8.217   8.445  1.00  0.00    -0.173 OA
BRANCH  26  27
HETATM   27  P   UNL     1      32.317  -9.174   8.227  1.00  0.00     0.431 P 
HETATM   28  O   UNL     1      31.973 -10.608   8.567  1.00  0.00    -0.616 OA
HETATM   29  O   UNL     1      32.672  -9.051   6.767  1.00  0.00    -0.616 OA
HETATM   30  O   UNL     1      33.441  -8.729   9.122  1.00  0.00    -0.616 OA
ENDBRANCH  26  27
ENDBRANCH  23  26
ENDBRANCH  22  23
ENDBRANCH  21  22
ENDBRANCH   1  21
BRANCH   3  31
HETATM   31  O   UNL     1      26.320  -9.295   6.678  1.00  0.00    -0.393 OA
ATOM     32  HO  UNL     1      25.791  -8.965   5.961  1.00  0.00     0.210 HD
ENDBRANCH   3  31
TORSDOF 7
ENDMDL
MODEL 8
REMARK VINA RESULT:    -7.073      9.833     12.176
REMARK INTER + INTRA:         -10.337
REMARK INTER:                  -9.039
REMARK INTRA:                  -1.298
REMARK UNBOUND:                -0.577
REMARK  7 active torsions:
REMARK  status: ('A' for Active; 'I' for Inactive)
REMARK    1  A    between atoms: P_1  and  O_8 
REMARK    2  A    between atoms: P_5  and  O_9 
REMARK    3  A    between atoms: P_5  and  O_8 
REMARK    4  A    between atoms: O_9  and  C_10 
REMARK    5  A    between atoms: C_10  and  C_11 
REMARK    6  A    between atoms: C_13  and  O_14 
REMARK    7  A    between atoms: C_17  and  N_18 
ROOT
HETATM    1  C   UNL     1      38.792 -12.976  10.010  1.00  0.00     0.177 C 
HETATM    2  O   UNL     1      39.897 -13.872  10.272  1.00  0.00    -0.356 OA
HETATM    3  C   UNL     1      38.777 -12.793   8.488  1.00  0.00     0.153 C 
HETATM    4  C   UNL     1      40.236 -12.925   8.089  1.00  0.00     0.088 C 
HETATM    5  C   UNL     1      40.812 -13.852   9.160  1.00  0.00     0.233 C 
ENDROOT
BRANCH   5   6
HETATM    6  N   UNL     1      40.894 -15.209   8.583  1.00  0.00    -0.300 N 
HETATM    7  C   UNL     1      40.614 -15.592   7.305  1.00  0.00     0.188 A 
HETATM    8  N   UNL     1      40.662 -16.954   7.192  1.00  0.00    -0.346 N 
HETATM    9  C   UNL     1      40.932 -17.467   8.414  1.00  0.00     0.122 A 
ATOM     10  HN  UNL     1      40.518 -17.489   6.335  1.00  0.00     0.167 HD
HETATM   11  C   UNL     1      41.209 -18.794   9.005  1.00  0.00     0.131 A 
HETATM   12  C   UNL     1      41.113 -16.300   9.310  1.00  0.00     0.142 A 
HETATM   13  N   UNL     1      41.119 -19.957   8.311  1.00  0.00    -0.383 N 
HETATM   14  N   UNL     1      41.587 -18.818  10.305  1.00  0.00    -0.337 N 
ATOM     15  HN2 UNL     1      40.835 -19.940   7.331  1.00  0.00     0.157 HD
ATOM     16  HN1 UNL     1      41.310 -20.872   8.719  1.00  0.00     0.157 HD
HETATM   17  C   UNL     1      41.658 -17.715  11.068  1.00  0.00     0.183 A 
ATOM     18  HN  UNL     1      41.829 -19.715  10.724  1.00  0.00     0.168 HD
HETATM   19  N   UNL     1      41.432 -16.483  10.597  1.00  0.00    -0.336 N 
ATOM     20  HN  UNL     1      41.504 -15.679  11.221  1.00  0.00     0.168 HD
ENDBRANCH   5   6
BRANCH   1  21
HETATM   21  C   UNL     1      37.486 -13.561  10.534  1.00  0.00     0.216 C 
BRANCH  21  22
HETATM   22  O   UNL     1      37.139 -12.834  11.706  1.00  0.00    -0.287 OA
BRANCH  22  23
HETATM   23  P   UNL     1      36.413 -11.379  11.681  1.00  0.00     0.418 P 
HETATM   24  O   UNL     1      34.973 -11.583  12.072  1.00  0.00    -0.624 OA
HETATM   25  O   UNL     1      37.147 -10.516  12.675  1.00  0.00    -0.624 OA
BRANCH  23  26
HETATM   26  O   UNL     1      36.408 -10.790  10.171  1.00  0.00    -0.173 OA
BRANCH  26  27
HETATM   27  P   UNL     1      35.398  -9.719   9.496  1.00  0.00     0.431 P 
HETATM   28  O   UNL     1      35.160  -8.555  10.432  1.00  0.00    -0.616 OA
HETATM   29  O   UNL     1      36.084  -9.251   8.238  1.00  0.00    -0.616 OA
HETATM   30  O   UNL     1      34.076 -10.378   9.208  1.00  0.00    -0.616 OA
ENDBRANCH  26  27
ENDBRANCH  23  26
ENDBRANCH  22  23
ENDBRANCH  21  22
ENDBRANCH   1  21
BRANCH   3  31
HETATM   31  O   UNL     1      38.286 -11.513   8.091  1.00  0.00    -0.393 OA
ATOM     32  HO  UNL     1      37.338 -11.456   8.122  1.00  0.00     0.210 HD
ENDBRANCH   3  31
TORSDOF 7
ENDMDL
MODEL 9
REMARK VINA RESULT:    -6.963      3.167      5.417
REMARK INTER + INTRA:         -10.185
REMARK INTER:                  -8.800
REMARK INTRA:                  -1.385
REMARK UNBOUND:                -0.577
REMARK  7 active torsions:
REMARK  status: ('A' for Active; 'I' for Inactive)
REMARK    1  A    between atoms: P_1  and  O_8 
REMARK    2  A    between atoms: P_5  and  O_9 
REMARK    3  A    between atoms: P_5  and  O_8 
REMARK    4  A    between atoms: O_9  and  C_10 
REMARK    5  A    between atoms: C_10  and  C_11 
REMARK    6  A    between atoms: C_13  and  O_14 
REMARK    7  A    between atoms: C_17  and  N_18 
ROOT
HETATM    1  C   UNL     1      28.713  -7.897   6.868  1.00  0.00     0.177 C 
HETATM    2  O   UNL     1      28.801  -8.386   5.509  1.00  0.00    -0.356 OA
HETATM    3  C   UNL     1      28.098  -9.050   7.670  1.00  0.00     0.153 C 
HETATM    4  C   UNL     1      27.202  -9.756   6.668  1.00  0.00     0.088 C 
HETATM    5  C   UNL     1      27.888  -9.484   5.329  1.00  0.00     0.233 C 
ENDROOT
BRANCH   5   6
HETATM    6  N   UNL     1      28.655 -10.691   4.963  1.00  0.00    -0.300 N 
HETATM    7  C   UNL     1      28.492 -11.959   5.435  1.00  0.00     0.188 A 
HETATM    8  N   UNL     1      29.489 -12.774   4.974  1.00  0.00    -0.346 N 
HETATM    9  C   UNL     1      30.334 -12.023   4.232  1.00  0.00     0.122 A 
ATOM     10  HN  UNL     1      29.580 -13.773   5.159  1.00  0.00     0.167 HD
HETATM   11  C   UNL     1      31.528 -12.235   3.384  1.00  0.00     0.131 A 
HETATM   12  C   UNL     1      29.750 -10.661   4.210  1.00  0.00     0.142 A 
HETATM   13  N   UNL     1      32.163 -13.430   3.271  1.00  0.00    -0.383 N 
HETATM   14  N   UNL     1      31.979 -11.168   2.685  1.00  0.00    -0.337 N 
ATOM     15  HN2 UNL     1      31.823 -14.234   3.798  1.00  0.00     0.157 HD
ATOM     16  HN1 UNL     1      32.987 -13.576   2.687  1.00  0.00     0.157 HD
HETATM   17  C   UNL     1      31.431  -9.945   2.778  1.00  0.00     0.183 A 
ATOM     18  HN  UNL     1      32.772 -11.299   2.057  1.00  0.00     0.168 HD
HETATM   19  N   UNL     1      30.345  -9.684   3.514  1.00  0.00    -0.336 N 
ATOM     20  HN  UNL     1      29.968  -8.737   3.545  1.00  0.00     0.168 HD
ENDBRANCH   5   6
BRANCH   1  21
HETATM   21  C   UNL     1      30.087  -7.499   7.390  1.00  0.00     0.216 C 
BRANCH  21  22
HETATM   22  O   UNL     1      30.526  -8.537   8.258  1.00  0.00    -0.287 OA
BRANCH  22  23
HETATM   23  P   UNL     1      31.923  -9.347   8.060  1.00  0.00     0.418 P 
HETATM   24  O   UNL     1      31.705 -10.754   8.552  1.00  0.00    -0.624 OA
HETATM   25  O   UNL     1      32.234  -9.310   6.586  1.00  0.00    -0.624 OA
BRANCH  23  26
HETATM   26  O   UNL     1      33.075  -8.698   8.995  1.00  0.00    -0.173 OA
BRANCH  26  27
HETATM   27  P   UNL     1      34.608  -9.175   9.207  1.00  0.00     0.431 P 
HETATM   28  O   UNL     1      35.437  -8.844   7.986  1.00  0.00    -0.616 OA
HETATM   29  O   UNL     1      35.109  -8.412  10.406  1.00  0.00    -0.616 OA
HETATM   30  O   UNL     1      34.653 -10.663   9.424  1.00  0.00    -0.616 OA
ENDBRANCH  26  27
ENDBRANCH  23  26
ENDBRANCH  22  23
ENDBRANCH  21  22
ENDBRANCH   1  21
BRANCH   3  31
HETATM   31  O   UNL     1      27.318  -8.600   8.776  1.00  0.00    -0.393 OA
ATOM     32  HO  UNL     1      26.445  -8.974   8.788  1.00  0.00     0.210 HD
ENDBRANCH   3  31
TORSDOF 7
ENDMDL
MODEL 10
REMARK VINA RESULT:    -6.960      4.637      6.953
REMARK INTER + INTRA:         -10.182
REMARK INTER:                 -10.175
REMARK INTRA:                  -0.006
REMARK UNBOUND:                -0.577
REMARK  7 active torsions:
REMARK  status: ('A' for Active; 'I' for Inactive)
REMARK    1  A    between atoms: P_1  and  O_8 
REMARK    2  A    between atoms: P_5  and  O_9 
REMARK    3  A    between atoms: P_5  and  O_8 
REMARK    4  A    between atoms: O_9  and  C_10 
REMARK    5  A    between atoms: C_10  and  C_11 
REMARK    6  A    between atoms: C_13  and  O_14 
REMARK    7  A    between atoms: C_17  and  N_18 
ROOT
HETATM    1  C   UNL     1      27.672 -10.930   4.774  1.00  0.00     0.177 C 
HETATM    2  O   UNL     1      28.125 -11.968   3.874  1.00  0.00    -0.356 OA
HETATM    3  C   UNL     1      27.144 -11.671   6.007  1.00  0.00     0.153 C 
HETATM    4  C   UNL     1      26.621 -12.984   5.450  1.00  0.00     0.088 C 
HETATM    5  C   UNL     1      27.497 -13.217   4.218  1.00  0.00     0.233 C 
ENDROOT
BRANCH   5   6
HETATM    6  N   UNL     1      28.542 -14.194   4.588  1.00  0.00    -0.300 N 
HETATM    7  C   UNL     1      29.567 -14.651   3.816  1.00  0.00     0.188 A 
HETATM    8  N   UNL     1      30.235 -15.659   4.456  1.00  0.00    -0.346 N 
HETATM    9  C   UNL     1      29.615 -15.890   5.635  1.00  0.00     0.122 A 
ATOM     10  HN  UNL     1      31.057 -16.150   4.104  1.00  0.00     0.167 HD
HETATM   11  C   UNL     1      29.825 -16.730   6.835  1.00  0.00     0.131 A 
HETATM   12  C   UNL     1      28.522 -14.892   5.718  1.00  0.00     0.142 A 
HETATM   13  N   UNL     1      30.801 -17.668   6.930  1.00  0.00    -0.383 N 
HETATM   14  N   UNL     1      28.995 -16.519   7.883  1.00  0.00    -0.337 N 
ATOM     15  HN2 UNL     1      31.427 -17.828   6.141  1.00  0.00     0.157 HD
ATOM     16  HN1 UNL     1      30.945 -18.248   7.757  1.00  0.00     0.157 HD
HETATM   17  C   UNL     1      27.980 -15.640   7.848  1.00  0.00     0.183 A 
ATOM     18  HN  UNL     1      29.147 -17.052   8.738  1.00  0.00     0.168 HD
HETATM   19  N   UNL     1      27.739 -14.840   6.803  1.00  0.00    -0.336 N 
ATOM     20  HN  UNL     1      26.956 -14.188   6.832  1.00  0.00     0.168 HD
ENDBRANCH   5   6
BRANCH   1  21
HETATM   21  C   UNL     1      28.809  -9.977   5.116  1.00  0.00     0.216 C 
BRANCH  21  22
HETATM   22  O   UNL     1      29.190 -10.240   6.461  1.00  0.00    -0.287 OA
BRANCH  22  23
HETATM   23  P   UNL     1      29.337  -9.086   7.598  1.00  0.00     0.418 P 
HETATM   24  O   UNL     1      29.694  -7.801   6.897  1.00  0.00    -0.624 OA
HETATM   25  O   UNL     1      28.003  -8.994   8.292  1.00  0.00    -0.624 OA
BRANCH  23  26
HETATM   26  O   UNL     1      30.573  -9.438   8.586  1.00  0.00    -0.173 OA
BRANCH  26  27
HETATM   27  P   UNL     1      32.152  -9.552   8.245  1.00  0.00     0.431 P 
HETATM   28  O   UNL     1      32.916  -8.422   8.901  1.00  0.00    -0.616 OA
HETATM   29  O   UNL     1      32.593 -10.880   8.805  1.00  0.00    -0.616 OA
HETATM   30  O   UNL     1      32.360  -9.467   6.757  1.00  0.00    -0.616 OA
ENDBRANCH  26  27
ENDBRANCH  23  26
ENDBRANCH  22  23
ENDBRANCH  21  22
ENDBRANCH   1  21
BRANCH   3  31
HETATM   31  O   UNL     1      26.084 -10.974   6.660  1.00  0.00    -0.393 OA
ATOM     32  HO  UNL     1      25.269 -11.001   6.172  1.00  0.00     0.210 HD
ENDBRANCH   3  31
TORSDOF 7
ENDMDL
MODEL 11
REMARK VINA RESULT:    -6.935      4.337      6.589
REMARK INTER + INTRA:         -10.148
REMARK INTER:                  -8.743
REMARK INTRA:                  -1.405
REMARK UNBOUND:                -0.577
REMARK  7 active torsions:
REMARK  status: ('A' for Active; 'I' for Inactive)
REMARK    1  A    between atoms: P_1  and  O_8 
REMARK    2  A    between atoms: P_5  and  O_9 
REMARK    3  A    between atoms: P_5  and  O_8 
REMARK    4  A    between atoms: O_9  and  C_10 
REMARK    5  A    between atoms: C_10  and  C_11 
REMARK    6  A    between atoms: C_13  and  O_14 
REMARK    7  A    between atoms: C_17  and  N_18 
ROOT
HETATM    1  C   UNL     1      28.146 -10.434   4.968  1.00  0.00     0.177 C 
HETATM    2  O   UNL     1      27.985 -11.755   4.402  1.00  0.00    -0.356 OA
HETATM    3  C   UNL     1      27.455 -10.496   6.335  1.00  0.00     0.153 C 
HETATM    4  C   UNL     1      26.338 -11.505   6.134  1.00  0.00     0.088 C 
HETATM    5  C   UNL     1      26.888 -12.429   5.047  1.00  0.00     0.233 C 
ENDROOT
BRANCH   5   6
HETATM    6  N   UNL     1      27.396 -13.648   5.708  1.00  0.00    -0.300 N 
HETATM    7  C   UNL     1      27.043 -14.147   6.925  1.00  0.00     0.188 A 
HETATM    8  N   UNL     1      27.840 -15.208   7.258  1.00  0.00    -0.346 N 
HETATM    9  C   UNL     1      28.748 -15.375   6.270  1.00  0.00     0.122 A 
ATOM     10  HN  UNL     1      27.763 -15.773   8.104  1.00  0.00     0.167 HD
HETATM   11  C   UNL     1      29.818 -16.336   5.919  1.00  0.00     0.131 A 
HETATM   12  C   UNL     1      28.419 -14.359   5.242  1.00  0.00     0.142 A 
HETATM   13  N   UNL     1      30.217 -17.343   6.736  1.00  0.00    -0.383 N 
HETATM   14  N   UNL     1      30.400 -16.187   4.706  1.00  0.00    -0.337 N 
ATOM     15  HN2 UNL     1      29.778 -17.456   7.650  1.00  0.00     0.157 HD
ATOM     16  HN1 UNL     1      30.954 -18.005   6.495  1.00  0.00     0.157 HD
HETATM   17  C   UNL     1      30.089 -15.190   3.862  1.00  0.00     0.183 A 
ATOM     18  HN  UNL     1      31.107 -16.863   4.421  1.00  0.00     0.168 HD
HETATM   19  N   UNL     1      29.126 -14.295   4.108  1.00  0.00    -0.336 N 
ATOM     20  HN  UNL     1      28.929 -13.560   3.429  1.00  0.00     0.168 HD
ENDBRANCH   5   6
BRANCH   1  21
HETATM   21  C   UNL     1      29.621 -10.072   5.083  1.00  0.00     0.216 C 
BRANCH  21  22
HETATM   22  O   UNL     1      29.699  -8.838   5.787  1.00  0.00    -0.287 OA
BRANCH  22  23
HETATM   23  P   UNL     1      31.086  -8.022   6.024  1.00  0.00     0.418 P 
HETATM   24  O   UNL     1      31.595  -7.588   4.675  1.00  0.00    -0.624 OA
HETATM   25  O   UNL     1      30.746  -6.845   6.901  1.00  0.00    -0.624 OA
BRANCH  23  26
HETATM   26  O   UNL     1      32.208  -9.010   6.651  1.00  0.00    -0.173 OA
BRANCH  26  27
HETATM   27  P   UNL     1      32.298  -9.638   8.140  1.00  0.00     0.431 P 
HETATM   28  O   UNL     1      30.912  -9.829   8.718  1.00  0.00    -0.616 OA
HETATM   29  O   UNL     1      32.988 -10.968   7.979  1.00  0.00    -0.616 OA
HETATM   30  O   UNL     1      33.065  -8.707   9.040  1.00  0.00    -0.616 OA
ENDBRANCH  26  27
ENDBRANCH  23  26
ENDBRANCH  22  23
ENDBRANCH  21  22
ENDBRANCH   1  21
BRANCH   3  31
HETATM   31  O   UNL     1      26.902  -9.243   6.732  1.00  0.00    -0.393 OA
ATOM     32  HO  UNL     1      26.079  -9.048   6.298  1.00  0.00     0.210 HD
ENDBRANCH   3  31
TORSDOF 7
ENDMDL
MODEL 12
REMARK VINA RESULT:    -6.911      2.693      4.166
REMARK INTER + INTRA:         -10.114
REMARK INTER:                  -9.170
REMARK INTRA:                  -0.944
REMARK UNBOUND:                -0.577
REMARK  7 active torsions:
REMARK  status: ('A' for Active; 'I' for Inactive)
REMARK    1  A    between atoms: P_1  and  O_8 
REMARK    2  A    between atoms: P_5  and  O_9 
REMARK    3  A    between atoms: P_5  and  O_8 
REMARK    4  A    between atoms: O_9  and  C_10 
REMARK    5  A    between atoms: C_10  and  C_11 
REMARK    6  A    between atoms: C_13  and  O_14 
REMARK    7  A    between atoms: C_17  and  N_18 
ROOT
HETATM    1  C   UNL     1      31.613  -9.381   6.899  1.00  0.00     0.177 C 
HETATM    2  O   UNL     1      31.117 -10.304   5.901  1.00  0.00    -0.356 OA
HETATM    3  C   UNL     1      30.376  -8.624   7.394  1.00  0.00     0.153 C 
HETATM    4  C   UNL     1      29.460  -8.586   6.183  1.00  0.00     0.088 C 
HETATM    5  C   UNL     1      29.839  -9.852   5.415  1.00  0.00     0.233 C 
ENDROOT
BRANCH   5   6
HETATM    6  N   UNL     1      28.822 -10.881   5.714  1.00  0.00    -0.300 N 
HETATM    7  C   UNL     1      27.723 -10.761   6.509  1.00  0.00     0.188 A 
HETATM    8  N   UNL     1      27.107 -11.973   6.659  1.00  0.00    -0.346 N 
HETATM    9  C   UNL     1      27.833 -12.898   5.992  1.00  0.00     0.122 A 
ATOM     10  HN  UNL     1      26.249 -12.148   7.183  1.00  0.00     0.167 HD
HETATM   11  C   UNL     1      27.728 -14.335   5.653  1.00  0.00     0.131 A 
HETATM   12  C   UNL     1      28.942 -12.153   5.349  1.00  0.00     0.142 A 
HETATM   13  N   UNL     1      26.754 -15.148   6.134  1.00  0.00    -0.383 N 
HETATM   14  N   UNL     1      28.657 -14.832   4.804  1.00  0.00    -0.337 N 
ATOM     15  HN2 UNL     1      26.053 -14.773   6.774  1.00  0.00     0.157 HD
ATOM     16  HN1 UNL     1      26.682 -16.138   5.901  1.00  0.00     0.157 HD
HETATM   17  C   UNL     1      29.675 -14.101   4.321  1.00  0.00     0.183 A 
ATOM     18  HN  UNL     1      28.580 -15.808   4.518  1.00  0.00     0.168 HD
HETATM   19  N   UNL     1      29.825 -12.796   4.576  1.00  0.00    -0.336 N 
ATOM     20  HN  UNL     1      30.615 -12.288   4.179  1.00  0.00     0.168 HD
ENDBRANCH   5   6
BRANCH   1  21
HETATM   21  C   UNL     1      32.321 -10.129   8.022  1.00  0.00     0.216 C 
BRANCH  21  22
HETATM   22  O   UNL     1      33.058  -9.168   8.769  1.00  0.00    -0.287 OA
BRANCH  22  23
HETATM   23  P   UNL     1      34.552  -9.437   9.355  1.00  0.00     0.418 P 
HETATM   24  O   UNL     1      35.516  -9.337   8.202  1.00  0.00    -0.624 OA
HETATM   25  O   UNL     1      34.803  -8.372  10.391  1.00  0.00    -0.624 OA
BRANCH  23  26
HETATM   26  O   UNL     1      34.658 -10.950   9.924  1.00  0.00    -0.173 OA
BRANCH  26  27
HETATM   27  P   UNL     1      35.786 -11.602  10.886  1.00  0.00     0.431 P 
HETATM   28  O   UNL     1      37.163 -11.412  10.289  1.00  0.00    -0.616 OA
HETATM   29  O   UNL     1      35.675 -10.868  12.197  1.00  0.00    -0.616 OA
HETATM   30  O   UNL     1      35.533 -13.077  11.040  1.00  0.00    -0.616 OA
ENDBRANCH  26  27
ENDBRANCH  23  26
ENDBRANCH  22  23
ENDBRANCH  21  22
ENDBRANCH   1  21
BRANCH   3  31
HETATM   31  O   UNL     1      30.673  -7.293   7.812  1.00  0.00    -0.393 OA
ATOM     32  HO  UNL     1      31.108  -7.259   8.656  1.00  0.00     0.210 HD
ENDBRANCH   3  31
TORSDOF 7
ENDMDL
MODEL 13
REMARK VINA RESULT:    -6.717      2.867      4.367
REMARK INTER + INTRA:          -9.846
REMARK INTER:                  -8.005
REMARK INTRA:                  -1.841
REMARK UNBOUND:                -0.577
REMARK  7 active torsions:
REMARK  status: ('A' for Active; 'I' for Inactive)
REMARK    1  A    between atoms: P_1  and  O_8 
REMARK    2  A    between atoms: P_5  and  O_9 
REMARK    3  A    between atoms: P_5  and  O_8 
REMARK    4  A    between atoms: O_9  and  C_10 
REMARK    5  A    between atoms: C_10  and  C_11 
REMARK    6  A    between atoms: C_13  and  O_14 
REMARK    7  A    between atoms: C_17  and  N_18 
ROOT
HETATM    1  C   UNL     1      29.401 -12.181   4.742  1.00  0.00     0.177 C 
HETATM    2  O   UNL     1      28.830 -11.821   6.021  1.00  0.00    -0.356 OA
HETATM    3  C   UNL     1      28.202 -12.506   3.845  1.00  0.00     0.153 C 
HETATM    4  C   UNL     1      27.162 -13.054   4.806  1.00  0.00     0.088 C 
HETATM    5  C   UNL     1      27.494 -12.350   6.122  1.00  0.00     0.233 C 
ENDROOT
BRANCH   5   6
HETATM    6  N   UNL     1      26.546 -11.230   6.286  1.00  0.00    -0.300 N 
HETATM    7  C   UNL     1      25.300 -11.106   5.748  1.00  0.00     0.188 A 
HETATM    8  N   UNL     1      24.790  -9.863   6.003  1.00  0.00    -0.346 N 
HETATM    9  C   UNL     1      25.727  -9.155   6.674  1.00  0.00     0.122 A 
ATOM     10  HN  UNL     1      23.865  -9.528   5.733  1.00  0.00     0.167 HD
HETATM   11  C   UNL     1      25.838  -7.833   7.329  1.00  0.00     0.131 A 
HETATM   12  C   UNL     1      26.864 -10.084   6.880  1.00  0.00     0.142 A 
HETATM   13  N   UNL     1      24.872  -6.882   7.263  1.00  0.00    -0.383 N 
HETATM   14  N   UNL     1      26.966  -7.594   8.037  1.00  0.00    -0.337 N 
ATOM     15  HN2 UNL     1      24.021  -7.062   6.730  1.00  0.00     0.157 HD
ATOM     16  HN1 UNL     1      24.949  -5.970   7.714  1.00  0.00     0.157 HD
HETATM   17  C   UNL     1      27.983  -8.468   8.113  1.00  0.00     0.183 A 
ATOM     18  HN  UNL     1      27.048  -6.708   8.536  1.00  0.00     0.168 HD
HETATM   19  N   UNL     1      27.946  -9.684   7.557  1.00  0.00    -0.336 N 
ATOM     20  HN  UNL     1      28.747 -10.309   7.649  1.00  0.00     0.168 HD
ENDBRANCH   5   6
BRANCH   1  21
HETATM   21  C   UNL     1      30.246 -11.042   4.187  1.00  0.00     0.216 C 
BRANCH  21  22
HETATM   22  O   UNL     1      29.986  -9.896   4.988  1.00  0.00    -0.287 OA
BRANCH  22  23
HETATM   23  P   UNL     1      31.145  -8.885   5.519  1.00  0.00     0.418 P 
HETATM   24  O   UNL     1      31.882  -8.365   4.312  1.00  0.00    -0.624 OA
HETATM   25  O   UNL     1      30.443  -7.781   6.266  1.00  0.00    -0.624 OA
BRANCH  23  26
HETATM   26  O   UNL     1      32.225  -9.702   6.409  1.00  0.00    -0.173 OA
BRANCH  26  27
HETATM   27  P   UNL     1      32.230  -9.983   8.003  1.00  0.00     0.431 P 
HETATM   28  O   UNL     1      32.487  -8.701   8.765  1.00  0.00    -0.616 OA
HETATM   29  O   UNL     1      30.860 -10.521   8.325  1.00  0.00    -0.616 OA
HETATM   30  O   UNL     1      33.318 -10.965   8.344  1.00  0.00    -0.616 OA
ENDBRANCH  26  27
ENDBRANCH  23  26
ENDBRANCH  22  23
ENDBRANCH  21  22
ENDBRANCH   1  21
BRANCH   3  31
HETATM   31  O   UNL     1      28.502 -13.488   2.854  1.00  0.00    -0.393 OA
ATOM     32  HO  UNL     1      29.435 -13.639   2.755  1.00  0.00     0.210 HD
ENDBRANCH   3  31
TORSDOF 7
ENDMDL
MODEL 14
REMARK VINA RESULT:    -6.673      9.585     12.063
REMARK INTER + INTRA:          -9.786
REMARK INTER:                  -8.654
REMARK INTRA:                  -1.132
REMARK UNBOUND:                -0.577
REMARK  7 active torsions:
REMARK  status: ('A' for Active; 'I' for Inactive)
REMARK    1  A    between atoms: P_1  and  O_8 
REMARK    2  A    between atoms: P_5  and  O_9 
REMARK    3  A    between atoms: P_5  and  O_8 
REMARK    4  A    between atoms: O_9  and  C_10 
REMARK    5  A    between atoms: C_10  and  C_11 
REMARK    6  A    between atoms: C_13  and  O_14 
REMARK    7  A    between atoms: C_17  and  N_18 
ROOT
HETATM    1  C   UNL     1      37.954 -12.888   9.337  1.00  0.00     0.177 C 
HETATM    2  O   UNL     1      39.357 -13.070   9.034  1.00  0.00    -0.356 OA
HETATM    3  C   UNL     1      37.304 -14.247   9.056  1.00  0.00     0.153 C 
HETATM    4  C   UNL     1      38.146 -14.831   7.935  1.00  0.00     0.088 C 
HETATM    5  C   UNL     1      39.523 -14.208   8.167  1.00  0.00     0.233 C 
ENDROOT
BRANCH   5   6
HETATM    6  N   UNL     1      40.363 -15.212   8.849  1.00  0.00    -0.300 N 
HETATM    7  C   UNL     1      40.210 -16.566   8.852  1.00  0.00     0.188 A 
HETATM    8  N   UNL     1      41.094 -17.146   9.719  1.00  0.00    -0.346 N 
HETATM    9  C   UNL     1      41.801 -16.161  10.318  1.00  0.00     0.122 A 
ATOM     10  HN  UNL     1      41.201 -18.147   9.884  1.00  0.00     0.167 HD
HETATM   11  C   UNL     1      42.939 -16.048  11.256  1.00  0.00     0.131 A 
HETATM   12  C   UNL     1      41.327 -14.896   9.708  1.00  0.00     0.142 A 
HETATM   13  N   UNL     1      43.508 -17.113  11.875  1.00  0.00    -0.383 N 
HETATM   14  N   UNL     1      43.428 -14.805  11.477  1.00  0.00    -0.337 N 
ATOM     15  HN2 UNL     1      43.140 -18.050  11.709  1.00  0.00     0.157 HD
ATOM     16  HN1 UNL     1      44.293 -17.034  12.522  1.00  0.00     0.157 HD
HETATM   17  C   UNL     1      42.891 -13.699  10.936  1.00  0.00     0.183 A 
ATOM     18  HN  UNL     1      44.242 -14.704  12.083  1.00  0.00     0.168 HD
HETATM   19  N   UNL     1      41.870 -13.728  10.071  1.00  0.00    -0.336 N 
ATOM     20  HN  UNL     1      41.505 -12.857   9.687  1.00  0.00     0.168 HD
ENDBRANCH   5   6
BRANCH   1  21
HETATM   21  C   UNL     1      37.767 -12.446  10.783  1.00  0.00     0.216 C 
BRANCH  21  22
HETATM   22  O   UNL     1      37.334 -11.091  10.756  1.00  0.00    -0.287 OA
BRANCH  22  23
HETATM   23  P   UNL     1      36.111 -10.519  11.664  1.00  0.00     0.418 P 
HETATM   24  O   UNL     1      35.288 -11.698  12.113  1.00  0.00    -0.624 OA
HETATM   25  O   UNL     1      36.742  -9.799  12.828  1.00  0.00    -0.624 OA
BRANCH  23  26
HETATM   26  O   UNL     1      35.141  -9.588  10.760  1.00  0.00    -0.173 OA
BRANCH  26  27
HETATM   27  P   UNL     1      34.588  -9.845   9.260  1.00  0.00     0.431 P 
HETATM   28  O   UNL     1      33.315  -9.061   9.024  1.00  0.00    -0.616 OA
HETATM   29  O   UNL     1      35.679  -9.366   8.337  1.00  0.00    -0.616 OA
HETATM   30  O   UNL     1      34.288 -11.307   9.070  1.00  0.00    -0.616 OA
ENDBRANCH  26  27
ENDBRANCH  23  26
ENDBRANCH  22  23
ENDBRANCH  21  22
ENDBRANCH   1  21
BRANCH   3  31
HETATM   31  O   UNL     1      35.948 -14.134   8.627  1.00  0.00    -0.393 OA
ATOM     32  HO  UNL     1      35.614 -13.247   8.691  1.00  0.00     0.210 HD
ENDBRANCH   3  31
TORSDOF 7
ENDMDL
MODEL 15
REMARK VINA RESULT:    -6.639      4.992      7.111
REMARK INTER + INTRA:          -9.739
REMARK INTER:                  -9.166
REMARK INTRA:                  -0.573
REMARK UNBOUND:                -0.577
REMARK  7 active torsions:
REMARK  status: ('A' for Active; 'I' for Inactive)
REMARK    1  A    between atoms: P_1  and  O_8 
REMARK    2  A    between atoms: P_5  and  O_9 
REMARK    3  A    between atoms: P_5  and  O_8 
REMARK    4  A    between atoms: O_9  and  C_10 
REMARK    5  A    between atoms: C_10  and  C_11 
REMARK    6  A    between atoms: C_13  and  O_14 
REMARK    7  A    between atoms: C_17  and  N_18 
ROOT
HETATM    1  C   UNL     1      27.995 -10.930   3.449  1.00  0.00     0.177 C 
HETATM    2  O   UNL     1      28.147 -12.270   2.923  1.00  0.00    -0.356 OA
HETATM    3  C   UNL     1      27.736 -11.115   4.948  1.00  0.00     0.153 C 
HETATM    4  C   UNL     1      27.008 -12.445   5.033  1.00  0.00     0.088 C 
HETATM    5  C   UNL     1      27.541 -13.215   3.824  1.00  0.00     0.233 C 
ENDROOT
BRANCH   5   6
HETATM    6  N   UNL     1      28.577 -14.150   4.307  1.00  0.00    -0.300 N 
HETATM    7  C   UNL     1      29.658 -14.622   3.626  1.00  0.00     0.188 A 
HETATM    8  N   UNL     1      30.302 -15.583   4.356  1.00  0.00    -0.346 N 
HETATM    9  C   UNL     1      29.612 -15.770   5.503  1.00  0.00     0.122 A 
ATOM     10  HN  UNL     1      31.154 -16.073   4.081  1.00  0.00     0.167 HD
HETATM   11  C   UNL     1      29.759 -16.547   6.754  1.00  0.00     0.131 A 
HETATM   12  C   UNL     1      28.497 -14.794   5.467  1.00  0.00     0.142 A 
HETATM   13  N   UNL     1      30.744 -17.458   6.957  1.00  0.00    -0.383 N 
HETATM   14  N   UNL     1      28.859 -16.304   7.735  1.00  0.00    -0.337 N 
ATOM     15  HN2 UNL     1      31.423 -17.642   6.218  1.00  0.00     0.157 HD
ATOM     16  HN1 UNL     1      30.845 -17.994   7.819  1.00  0.00     0.157 HD
HETATM   17  C   UNL     1      27.832 -15.450   7.592  1.00  0.00     0.183 A 
ATOM     18  HN  UNL     1      28.966 -16.792   8.624  1.00  0.00     0.168 HD
HETATM   19  N   UNL     1      27.645 -14.707   6.496  1.00  0.00    -0.336 N 
ATOM     20  HN  UNL     1      26.849 -14.070   6.443  1.00  0.00     0.168 HD
ENDBRANCH   5   6
BRANCH   1  21
HETATM   21  C   UNL     1      29.243 -10.099   3.176  1.00  0.00     0.216 C 
BRANCH  21  22
HETATM   22  O   UNL     1      29.841  -9.812   4.434  1.00  0.00    -0.287 OA
BRANCH  22  23
HETATM   23  P   UNL     1      31.448  -9.819   4.691  1.00  0.00     0.418 P 
HETATM   24  O   UNL     1      31.933 -11.231   4.493  1.00  0.00    -0.624 OA
HETATM   25  O   UNL     1      32.046  -8.873   3.682  1.00  0.00    -0.624 OA
BRANCH  23  26
HETATM   26  O   UNL     1      31.763  -9.428   6.231  1.00  0.00    -0.173 OA
BRANCH  26  27
HETATM   27  P   UNL     1      31.502 -10.289   7.577  1.00  0.00     0.431 P 
HETATM   28  O   UNL     1      30.415 -11.316   7.345  1.00  0.00    -0.616 OA
HETATM   29  O   UNL     1      32.812 -10.970   7.883  1.00  0.00    -0.616 OA
HETATM   30  O   UNL     1      31.065  -9.376   8.690  1.00  0.00    -0.616 OA
ENDBRANCH  26  27
ENDBRANCH  23  26
ENDBRANCH  22  23
ENDBRANCH  21  22
ENDBRANCH   1  21
BRANCH   3  31
HETATM   31  O   UNL     1      26.916 -10.085   5.498  1.00  0.00    -0.393 OA
ATOM     32  HO  UNL     1      27.408  -9.305   5.728  1.00  0.00     0.210 HD
ENDBRANCH   3  31
TORSDOF 7
ENDMDL
MODEL 16
REMARK VINA RESULT:    -6.625      7.321     10.634
REMARK INTER + INTRA:          -9.719
REMARK INTER:                  -9.069
REMARK INTRA:                  -0.650
REMARK UNBOUND:                -0.577
REMARK  7 active torsions:
REMARK  status: ('A' for Active; 'I' for Inactive)
REMARK    1  A    between atoms: P_1  and  O_8 
REMARK    2  A    between atoms: P_5  and  O_9 
REMARK    3  A    between atoms: P_5  and  O_8 
REMARK    4  A    between atoms: O_9  and  C_10 
REMARK    5  A    between atoms: C_10  and  C_11 
REMARK    6  A    between atoms: C_13  and  O_14 
REMARK    7  A    between atoms: C_17  and  N_18 
ROOT
HETATM    1  C   UNL     1      34.928 -11.593  10.158  1.00  0.00     0.177 C 
HETATM    2  O   UNL     1      35.595 -12.568   9.322  1.00  0.00    -0.356 OA
HETATM    3  C   UNL     1      35.929 -11.271  11.273  1.00  0.00     0.153 C 
HETATM    4  C   UNL     1      36.706 -12.563  11.453  1.00  0.00     0.088 C 
HETATM    5  C   UNL     1      36.652 -13.203  10.065  1.00  0.00     0.233 C 
ENDROOT
BRANCH   5   6
HETATM    6  N   UNL     1      37.939 -12.932   9.394  1.00  0.00    -0.300 N 
HETATM    7  C   UNL     1      38.209 -11.978   8.460  1.00  0.00     0.188 A 
HETATM    8  N   UNL     1      39.474 -12.137   7.965  1.00  0.00    -0.346 N 
HETATM    9  C   UNL     1      40.018 -13.229   8.549  1.00  0.00     0.122 A 
ATOM     10  HN  UNL     1      39.927 -11.537   7.276  1.00  0.00     0.167 HD
HETATM   11  C   UNL     1      41.326 -13.921   8.569  1.00  0.00     0.131 A 
HETATM   12  C   UNL     1      39.003 -13.720   9.511  1.00  0.00     0.142 A 
HETATM   13  N   UNL     1      42.369 -13.574   7.773  1.00  0.00    -0.383 N 
HETATM   14  N   UNL     1      41.466 -14.939   9.449  1.00  0.00    -0.337 N 
ATOM     15  HN2 UNL     1      42.264 -12.806   7.109  1.00  0.00     0.157 HD
ATOM     16  HN1 UNL     1      43.270 -14.051   7.787  1.00  0.00     0.157 HD
HETATM   17  C   UNL     1      40.467 -15.368  10.239  1.00  0.00     0.183 A 
ATOM     18  HN  UNL     1      42.372 -15.403   9.516  1.00  0.00     0.168 HD
HETATM   19  N   UNL     1      39.265 -14.783  10.281  1.00  0.00    -0.336 N 
ATOM     20  HN  UNL     1      38.544 -15.148  10.903  1.00  0.00     0.168 HD
ENDBRANCH   5   6
BRANCH   1  21
HETATM   21  C   UNL     1      34.547 -10.359   9.350  1.00  0.00     0.216 C 
BRANCH  21  22
HETATM   22  O   UNL     1      33.524 -10.750   8.442  1.00  0.00    -0.287 OA
BRANCH  22  23
HETATM   23  P   UNL     1      32.279  -9.791   8.021  1.00  0.00     0.418 P 
HETATM   24  O   UNL     1      31.019 -10.424   8.550  1.00  0.00    -0.624 OA
HETATM   25  O   UNL     1      32.540  -8.448   8.652  1.00  0.00    -0.624 OA
BRANCH  23  26
HETATM   26  O   UNL     1      32.138  -9.747   6.407  1.00  0.00    -0.173 OA
BRANCH  26  27
HETATM   27  P   UNL     1      31.276  -8.732   5.485  1.00  0.00     0.431 P 
HETATM   28  O   UNL     1      29.982  -8.360   6.176  1.00  0.00    -0.616 OA
HETATM   29  O   UNL     1      32.144  -7.513   5.302  1.00  0.00    -0.616 OA
HETATM   30  O   UNL     1      30.944  -9.392   4.174  1.00  0.00    -0.616 OA
ENDBRANCH  26  27
ENDBRANCH  23  26
ENDBRANCH  22  23
ENDBRANCH  21  22
ENDBRANCH   1  21
BRANCH   3  31
HETATM   31  O   UNL     1      35.294 -10.920  12.502  1.00  0.00    -0.393 OA
ATOM     32  HO  UNL     1      34.642 -11.554  12.774  1.00  0.00     0.210 HD
ENDBRANCH   3  31
TORSDOF 7
ENDMDL
MODEL 17
REMARK VINA RESULT:    -6.546      8.240     10.839
REMARK INTER + INTRA:          -9.611
REMARK INTER:                  -8.889
REMARK INTRA:                  -0.721
REMARK UNBOUND:                -0.577
REMARK  7 active torsions:
REMARK  status: ('A' for Active; 'I' for Inactive)
REMARK    1  A    between atoms: P_1  and  O_8 
REMARK    2  A    between atoms: P_5  and  O_9 
REMARK    3  A    between atoms: P_5  and  O_8 
REMARK    4  A    between atoms: O_9  and  C_10 
REMARK    5  A    between atoms: C_10  and  C_11 
REMARK    6  A    between atoms: C_13  and  O_14 
REMARK    7  A    between atoms: C_17  and  N_18 
ROOT
HETATM    1  C   UNL     1      36.774 -12.430   9.549  1.00  0.00     0.177 C 
HETATM    2  O   UNL     1      37.492 -13.139   8.513  1.00  0.00    -0.356 OA
HETATM    3  C   UNL     1      37.552 -12.709  10.839  1.00  0.00     0.153 C 
HETATM    4  C   UNL     1      38.136 -14.094  10.622  1.00  0.00     0.088 C 
HETATM    5  C   UNL     1      38.301 -14.173   9.104  1.00  0.00     0.233 C 
ENDROOT
BRANCH   5   6
HETATM    6  N   UNL     1      39.720 -13.908   8.792  1.00  0.00    -0.300 N 
HETATM    7  C   UNL     1      40.819 -14.499   9.338  1.00  0.00     0.188 A 
HETATM    8  N   UNL     1      41.960 -13.882   8.903  1.00  0.00    -0.346 N 
HETATM    9  C   UNL     1      41.601 -12.855   8.100  1.00  0.00     0.122 A 
ATOM     10  HN  UNL     1      42.915 -14.151   9.143  1.00  0.00     0.167 HD
HETATM   11  C   UNL     1      42.270 -11.855   7.240  1.00  0.00     0.131 A 
HETATM   12  C   UNL     1      40.122 -12.909   8.013  1.00  0.00     0.142 A 
HETATM   13  N   UNL     1      43.617 -11.699   7.181  1.00  0.00    -0.383 N 
HETATM   14  N   UNL     1      41.472 -11.079   6.470  1.00  0.00    -0.337 N 
ATOM     15  HN2 UNL     1      44.219 -12.284   7.760  1.00  0.00     0.157 HD
ATOM     16  HN1 UNL     1      44.078 -11.009   6.588  1.00  0.00     0.157 HD
HETATM   17  C   UNL     1      40.131 -11.145   6.505  1.00  0.00     0.183 A 
ATOM     18  HN  UNL     1      41.909 -10.413   5.833  1.00  0.00     0.168 HD
HETATM   19  N   UNL     1      39.461 -12.032   7.250  1.00  0.00    -0.336 N 
ATOM     20  HN  UNL     1      38.441 -12.040   7.235  1.00  0.00     0.168 HD
ENDBRANCH   5   6
BRANCH   1  21
HETATM   21  C   UNL     1      36.697 -10.942   9.231  1.00  0.00     0.216 C 
BRANCH  21  22
HETATM   22  O   UNL     1      35.321 -10.582   9.225  1.00  0.00    -0.287 OA
BRANCH  22  23
HETATM   23  P   UNL     1      34.791  -9.048   9.115  1.00  0.00     0.418 P 
HETATM   24  O   UNL     1      35.206  -8.333  10.374  1.00  0.00    -0.624 OA
HETATM   25  O   UNL     1      35.444  -8.456   7.892  1.00  0.00    -0.624 OA
BRANCH  23  26
HETATM   26  O   UNL     1      33.172  -9.024   9.076  1.00  0.00    -0.173 OA
BRANCH  26  27
HETATM   27  P   UNL     1      32.167  -9.676   7.986  1.00  0.00     0.431 P 
HETATM   28  O   UNL     1      32.600 -11.085   7.644  1.00  0.00    -0.616 OA
HETATM   29  O   UNL     1      30.810  -9.687   8.641  1.00  0.00    -0.616 OA
HETATM   30  O   UNL     1      32.180  -8.855   6.725  1.00  0.00    -0.616 OA
ENDBRANCH  26  27
ENDBRANCH  23  26
ENDBRANCH  22  23
ENDBRANCH  21  22
ENDBRANCH   1  21
BRANCH   3  31
HETATM   31  O   UNL     1      36.719 -12.717  11.997  1.00  0.00    -0.393 OA
ATOM     32  HO  UNL     1      35.861 -13.090  11.831  1.00  0.00     0.210 HD
ENDBRANCH   3  31
TORSDOF 7
ENDMDL
MODEL 18
REMARK VINA RESULT:    -6.532      3.509      5.303
REMARK INTER + INTRA:          -9.591
REMARK INTER:                  -8.765
REMARK INTRA:                  -0.826
REMARK UNBOUND:                -0.577
REMARK  7 active torsions:
REMARK  status: ('A' for Active; 'I' for Inactive)
REMARK    1  A    between atoms: P_1  and  O_8 
REMARK    2  A    between atoms: P_5  and  O_9 
REMARK    3  A    between atoms: P_5  and  O_8 
REMARK    4  A    between atoms: O_9  and  C_10 
REMARK    5  A    between atoms: C_10  and  C_11 
REMARK    6  A    between atoms: C_13  and  O_14 
REMARK    7  A    between atoms: C_17  and  N_18 
ROOT
HETATM    1  C   UNL     1      31.597  -9.237   4.237  1.00  0.00     0.177 C 
HETATM    2  O   UNL     1      31.630 -10.643   4.575  1.00  0.00    -0.356 OA
HETATM    3  C   UNL     1      30.215  -9.006   3.617  1.00  0.00     0.153 C 
HETATM    4  C   UNL     1      29.886 -10.331   2.950  1.00  0.00     0.088 C 
HETATM    5  C   UNL     1      30.641 -11.351   3.803  1.00  0.00     0.233 C 
ENDROOT
BRANCH   5   6
HETATM    6  N   UNL     1      29.670 -11.974   4.725  1.00  0.00    -0.300 N 
HETATM    7  C   UNL     1      28.886 -11.358   5.653  1.00  0.00     0.188 A 
HETATM    8  N   UNL     1      28.231 -12.283   6.417  1.00  0.00    -0.346 N 
HETATM    9  C   UNL     1      28.621 -13.513   6.012  1.00  0.00     0.122 A 
ATOM     10  HN  UNL     1      27.563 -12.081   7.161  1.00  0.00     0.167 HD
HETATM   11  C   UNL     1      28.276 -14.922   6.305  1.00  0.00     0.131 A 
HETATM   12  C   UNL     1      29.546 -13.289   4.875  1.00  0.00     0.142 A 
HETATM   13  N   UNL     1      27.423 -15.294   7.292  1.00  0.00    -0.383 N 
HETATM   14  N   UNL     1      28.845 -15.867   5.520  1.00  0.00    -0.337 N 
ATOM     15  HN2 UNL     1      26.994 -14.582   7.884  1.00  0.00     0.157 HD
ATOM     16  HN1 UNL     1      27.185 -16.265   7.494  1.00  0.00     0.157 HD
HETATM   17  C   UNL     1      29.731 -15.580   4.552  1.00  0.00     0.183 A 
ATOM     18  HN  UNL     1      28.588 -16.842   5.671  1.00  0.00     0.168 HD
HETATM   19  N   UNL     1      30.079 -14.330   4.226  1.00  0.00    -0.336 N 
ATOM     20  HN  UNL     1      30.755 -14.170   3.479  1.00  0.00     0.168 HD
ENDBRANCH   5   6
BRANCH   1  21
HETATM   21  C   UNL     1      31.825  -8.379   5.475  1.00  0.00     0.216 C 
BRANCH  21  22
HETATM   22  O   UNL     1      32.260  -9.246   6.515  1.00  0.00    -0.287 OA
BRANCH  22  23
HETATM   23  P   UNL     1      31.737  -9.142   8.052  1.00  0.00     0.418 P 
HETATM   24  O   UNL     1      30.634  -8.117   8.089  1.00  0.00    -0.624 OA
HETATM   25  O   UNL     1      31.241 -10.514   8.430  1.00  0.00    -0.624 OA
BRANCH  23  26
HETATM   26  O   UNL     1      32.925  -8.585   9.003  1.00  0.00    -0.173 OA
BRANCH  26  27
HETATM   27  P   UNL     1      34.461  -9.084   9.116  1.00  0.00     0.431 P 
HETATM   28  O   UNL     1      35.137  -8.446  10.310  1.00  0.00    -0.616 OA
HETATM   29  O   UNL     1      34.391 -10.579   9.287  1.00  0.00    -0.616 OA
HETATM   30  O   UNL     1      35.217  -8.691   7.875  1.00  0.00    -0.616 OA
ENDBRANCH  26  27
ENDBRANCH  23  26
ENDBRANCH  22  23
ENDBRANCH  21  22
ENDBRANCH   1  21
BRANCH   3  31
HETATM   31  O   UNL     1      30.213  -7.966   2.640  1.00  0.00    -0.393 OA
ATOM     32  HO  UNL     1      30.512  -7.134   2.988  1.00  0.00     0.210 HD
ENDBRANCH   3  31
TORSDOF 7
ENDMDL
MODEL 19
REMARK VINA RESULT:    -6.469      3.947      6.482
REMARK INTER + INTRA:          -9.505
REMARK INTER:                  -7.667
REMARK INTRA:                  -1.838
REMARK UNBOUND:                -0.577
REMARK  7 active torsions:
REMARK  status: ('A' for Active; 'I' for Inactive)
REMARK    1  A    between atoms: P_1  and  O_8 
REMARK    2  A    between atoms: P_5  and  O_9 
REMARK    3  A    between atoms: P_5  and  O_8 
REMARK    4  A    between atoms: O_9  and  C_10 
REMARK    5  A    between atoms: C_10  and  C_11 
REMARK    6  A    between atoms: C_13  and  O_14 
REMARK    7  A    between atoms: C_17  and  N_18 
ROOT
HETATM    1  C   UNL     1      27.108  -9.128   5.175  1.00  0.00     0.177 C 
HETATM    2  O   UNL     1      26.953 -10.326   4.379  1.00  0.00    -0.356 OA
HETATM    3  C   UNL     1      26.849  -9.569   6.619  1.00  0.00     0.153 C 
HETATM    4  C   UNL     1      25.852 -10.707   6.481  1.00  0.00     0.088 C 
HETATM    5  C   UNL     1      26.177 -11.295   5.108  1.00  0.00     0.233 C 
ENDROOT
BRANCH   5   6
HETATM    6  N   UNL     1      26.997 -12.505   5.319  1.00  0.00    -0.300 N 
HETATM    7  C   UNL     1      27.160 -13.212   6.472  1.00  0.00     0.188 A 
HETATM    8  N   UNL     1      28.113 -14.180   6.310  1.00  0.00    -0.346 N 
HETATM    9  C   UNL     1      28.606 -14.076   5.055  1.00  0.00     0.122 A 
ATOM     10  HN  UNL     1      28.401 -14.861   7.013  1.00  0.00     0.167 HD
HETATM   11  C   UNL     1      29.552 -14.812   4.187  1.00  0.00     0.131 A 
HETATM   12  C   UNL     1      27.835 -12.988   4.407  1.00  0.00     0.142 A 
HETATM   13  N   UNL     1      30.309 -15.852   4.619  1.00  0.00    -0.383 N 
HETATM   14  N   UNL     1      29.632 -14.415   2.896  1.00  0.00    -0.337 N 
ATOM     15  HN2 UNL     1      30.248 -16.152   5.592  1.00  0.00     0.157 HD
ATOM     16  HN1 UNL     1      30.961 -16.359   4.020  1.00  0.00     0.157 HD
HETATM   17  C   UNL     1      28.947 -13.368   2.406  1.00  0.00     0.183 A 
ATOM     18  HN  UNL     1      30.242 -14.935   2.265  1.00  0.00     0.168 HD
HETATM   19  N   UNL     1      28.068 -12.666   3.129  1.00  0.00    -0.336 N 
ATOM     20  HN  UNL     1      27.572 -11.882   2.705  1.00  0.00     0.168 HD
ENDBRANCH   5   6
BRANCH   1  21
HETATM   21  C   UNL     1      28.500  -8.535   4.993  1.00  0.00     0.216 C 
BRANCH  21  22
HETATM   22  O   UNL     1      29.310  -9.028   6.053  1.00  0.00    -0.287 OA
BRANCH  22  23
HETATM   23  P   UNL     1      30.390 -10.231   5.876  1.00  0.00     0.418 P 
HETATM   24  O   UNL     1      29.966 -11.359   6.779  1.00  0.00    -0.624 OA
HETATM   25  O   UNL     1      30.353 -10.631   4.423  1.00  0.00    -0.624 OA
BRANCH  23  26
HETATM   26  O   UNL     1      31.848  -9.744   6.389  1.00  0.00    -0.173 OA
BRANCH  26  27
HETATM   27  P   UNL     1      32.339  -9.402   7.894  1.00  0.00     0.431 P 
HETATM   28  O   UNL     1      32.344 -10.653   8.745  1.00  0.00    -0.616 OA
HETATM   29  O   UNL     1      33.737  -8.857   7.751  1.00  0.00    -0.616 OA
HETATM   30  O   UNL     1      31.403  -8.404   8.520  1.00  0.00    -0.616 OA
ENDBRANCH  26  27
ENDBRANCH  23  26
ENDBRANCH  22  23
ENDBRANCH  21  22
ENDBRANCH   1  21
BRANCH   3  31
HETATM   31  O   UNL     1      26.285  -8.533   7.422  1.00  0.00    -0.393 OA
ATOM     32  HO  UNL     1      25.800  -8.867   8.167  1.00  0.00     0.210 HD
ENDBRANCH   3  31
TORSDOF 7
ENDMDL
MODEL 20
REMARK VINA RESULT:    -6.373      9.834     12.219
REMARK INTER + INTRA:          -9.372
REMARK INTER:                  -8.442
REMARK INTRA:                  -0.930
REMARK UNBOUND:                -0.577
REMARK  7 active torsions:
REMARK  status: ('A' for Active; 'I' for Inactive)
REMARK    1  A    between atoms: P_1  and  O_8 
REMARK    2  A    between atoms: P_5  and  O_9 
REMARK    3  A    between atoms: P_5  and  O_8 
REMARK    4  A    between atoms: O_9  and  C_10 
REMARK    5  A    between atoms: C_10  and  C_11 
REMARK    6  A    between atoms: C_13  and  O_14 
REMARK    7  A    between atoms: C_17  and  N_18 
ROOT
HETATM    1  C   UNL     1      38.874 -12.774   9.936  1.00  0.00     0.177 C 
HETATM    2  O   UNL     1      40.039 -13.602  10.164  1.00  0.00    -0.356 OA
HETATM    3  C   UNL     1      38.556 -12.932   8.445  1.00  0.00     0.153 C 
HETATM    4  C   UNL     1      39.913 -13.166   7.804  1.00  0.00     0.088 C 
HETATM    5  C   UNL     1      40.717 -13.839   8.916  1.00  0.00     0.233 C 
ENDROOT
BRANCH   5   6
HETATM    6  N   UNL     1      40.730 -15.291   8.646  1.00  0.00    -0.300 N 
HETATM    7  C   UNL     1      40.169 -16.284   9.391  1.00  0.00     0.188 A 
HETATM    8  N   UNL     1      40.522 -17.510   8.900  1.00  0.00    -0.346 N 
HETATM    9  C   UNL     1      41.356 -17.317   7.853  1.00  0.00     0.122 A 
ATOM     10  HN  UNL     1      40.212 -18.412   9.261  1.00  0.00     0.167 HD
HETATM   11  C   UNL     1      42.030 -18.142   6.826  1.00  0.00     0.131 A 
HETATM   12  C   UNL     1      41.455 -15.848   7.681  1.00  0.00     0.142 A 
HETATM   13  N   UNL     1      42.009 -19.499   6.823  1.00  0.00    -0.383 N 
HETATM   14  N   UNL     1      42.681 -17.480   5.841  1.00  0.00    -0.337 N 
ATOM     15  HN2 UNL     1      41.518 -19.998   7.565  1.00  0.00     0.157 HD
ATOM     16  HN1 UNL     1      42.475 -20.067   6.115  1.00  0.00     0.157 HD
HETATM   17  C   UNL     1      42.782 -16.141   5.800  1.00  0.00     0.183 A 
ATOM     18  HN  UNL     1      43.115 -18.023   5.095  1.00  0.00     0.168 HD
HETATM   19  N   UNL     1      42.189 -15.335   6.687  1.00  0.00    -0.336 N 
ATOM     20  HN  UNL     1      42.296 -14.323   6.606  1.00  0.00     0.168 HD
ENDBRANCH   5   6
BRANCH   1  21
HETATM   21  C   UNL     1      37.716 -13.215  10.823  1.00  0.00     0.216 C 
BRANCH  21  22
HETATM   22  O   UNL     1      37.513 -12.191  11.789  1.00  0.00    -0.287 OA
BRANCH  22  23
HETATM   23  P   UNL     1      36.399 -11.015  11.634  1.00  0.00     0.418 P 
HETATM   24  O   UNL     1      35.055 -11.618  11.945  1.00  0.00    -0.624 OA
HETATM   25  O   UNL     1      36.773  -9.938  12.620  1.00  0.00    -0.624 OA
BRANCH  23  26
HETATM   26  O   UNL     1      36.340 -10.510  10.095  1.00  0.00    -0.173 OA
BRANCH  26  27
HETATM   27  P   UNL     1      35.264  -9.532   9.382  1.00  0.00     0.431 P 
HETATM   28  O   UNL     1      33.972 -10.272   9.116  1.00  0.00    -0.616 OA
HETATM   29  O   UNL     1      35.033  -8.404  10.356  1.00  0.00    -0.616 OA
HETATM   30  O   UNL     1      35.812  -9.043   8.069  1.00  0.00    -0.616 OA
ENDBRANCH  26  27
ENDBRANCH  23  26
ENDBRANCH  22  23
ENDBRANCH  21  22
ENDBRANCH   1  21
BRANCH   3  31
HETATM   31  O   UNL     1      37.955 -11.768   7.881  1.00  0.00    -0.393 OA
ATOM     32  HO  UNL     1      38.588 -11.184   7.480  1.00  0.00     0.210 HD
ENDBRANCH   3  31
TORSDOF 7
ENDMDL
