MODEL 1
REMARK VINA RESULT:    -7.955      0.000      0.000
REMARK INTER + INTRA:         -13.255
REMARK INTER:                 -12.373
REMARK INTRA:                  -0.882
REMARK UNBOUND:                -0.882
REMARK  10 active torsions:
REMARK  status: ('A' for Active; 'I' for Inactive)
REMARK    1  A    between atoms: C_1  and  C_17 
REMARK    2  A    between atoms: C_2  and  C_12 
REMARK    3  A    between atoms: C_6  and  O_15 
REMARK    4  A    between atoms: P_8  and  O_11 
REMARK    5  A    between atoms: O_11  and  C_12 
REMARK    6  A    between atoms: C_17  and  N_18 
REMARK    7  A    between atoms: N_18  and  C_20 
REMARK    8  A    between atoms: C_20  and  C_21 
REMARK    9  A    between atoms: C_21  and  C_22 
REMARK   10  A    between atoms: C_22  and  S_23 
ROOT
HETATM    1  C   UNL     1      25.699 -12.268  57.843  1.00  0.00     0.024 A 
HETATM    2  C   UNL     1      24.927 -11.434  57.001  1.00  0.00    -0.004 A 
HETATM    3  C   UNL     1      24.070 -11.995  56.050  1.00  0.00     0.098 A 
HETATM    4  N   UNL     1      23.950 -13.327  55.926  1.00  0.00    -0.367 N 
ATOM      5  HN  UNL     1      23.313 -13.709  55.226  1.00  0.00     0.165 HD
HETATM    6  C   UNL     1      25.550 -13.673  57.653  1.00  0.00     0.100 A 
HETATM    7  C   UNL     1      24.663 -14.182  56.715  1.00  0.00     0.039 A 
HETATM    8  C   UNL     1      24.461 -15.654  56.455  1.00  0.00     0.071 C 
ENDROOT
BRANCH   1   9
HETATM    9  C   UNL     1      26.604 -11.744  58.785  1.00  0.00     0.102 C 
BRANCH   9  10
HETATM   10  N   UNL     1      26.620 -12.222  60.009  1.00  0.00    -0.378 N 
ATOM     11  HN  UNL     1      25.726 -12.342  60.485  1.00  0.00     0.164 HD
BRANCH  10  12
HETATM   12  C   UNL     1      27.840 -12.596  60.734  1.00  0.00     0.061 C 
BRANCH  12  13
HETATM   13  C   UNL     1      28.463 -11.693  61.787  1.00  0.00     0.054 C 
BRANCH  13  14
HETATM   14  C   UNL     1      29.580 -10.795  61.331  1.00  0.00     0.078 C 
BRANCH  14  15
HETATM   15  S   UNL     1      30.328 -11.726  59.924  1.00  0.00    -0.173 SA
HETATM   16  C   UNL     1      31.865 -12.337  60.596  1.00  0.00     0.089 C 
ENDBRANCH  14  15
ENDBRANCH  13  14
ENDBRANCH  12  13
ENDBRANCH  10  12
ENDBRANCH   9  10
ENDBRANCH   1   9
BRANCH   2  17
HETATM   17  C   UNL     1      24.990  -9.903  57.023  1.00  0.00     0.223 C 
BRANCH  17  18
HETATM   18  O   UNL     1      26.190  -9.537  56.377  1.00  0.00    -0.278 OA
BRANCH  18  19
HETATM   19  P   UNL     1      26.993  -8.236  56.939  1.00  0.00     0.422 P 
HETATM   20  O   UNL     1      26.860  -8.341  58.400  1.00  0.00    -0.617 OA
HETATM   21  O   UNL     1      26.257  -7.044  56.414  1.00  0.00    -0.617 OA
HETATM   22  O   UNL     1      28.303  -8.504  56.395  1.00  0.00    -0.617 OA
ENDBRANCH  18  19
ENDBRANCH  17  18
ENDBRANCH   2  17
BRANCH   6  23
HETATM   23  O   UNL     1      26.234 -14.569  58.409  1.00  0.00    -0.358 OA
ATOM     24  HO  UNL     1      25.881 -15.430  58.602  1.00  0.00     0.217 HD
ENDBRANCH   6  23
TORSDOF 10
ENDMDL
MODEL 2
REMARK VINA RESULT:    -7.302      2.695      5.479
REMARK INTER + INTRA:         -12.239
REMARK INTER:                 -11.577
REMARK INTRA:                  -0.661
REMARK UNBOUND:                -0.882
REMARK  10 active torsions:
REMARK  status: ('A' for Active; 'I' for Inactive)
REMARK    1  A    between atoms: C_1  and  C_17 
REMARK    2  A    between atoms: C_2  and  C_12 
REMARK    3  A    between atoms: C_6  and  O_15 
REMARK    4  A    between atoms: P_8  and  O_11 
REMARK    5  A    between atoms: O_11  and  C_12 
REMARK    6  A    between atoms: C_17  and  N_18 
REMARK    7  A    between atoms: N_18  and  C_20 
REMARK    8  A    between atoms: C_20  and  C_21 
REMARK    9  A    between atoms: C_21  and  C_22 
REMARK   10  A    between atoms: C_22  and  S_23 
ROOT
HETATM    1  C   UNL     1      26.725 -11.422  59.383  1.00  0.00     0.024 A 
HETATM    2  C   UNL     1      26.734 -10.114  59.920  1.00  0.00    -0.004 A 
HETATM    3  C   UNL     1      27.231  -9.884  61.206  1.00  0.00     0.098 A 
HETATM    4  N   UNL     1      27.719 -10.892  61.949  1.00  0.00    -0.367 N 
ATOM      5  HN  UNL     1      28.080 -10.694  62.883  1.00  0.00     0.165 HD
HETATM    6  C   UNL     1      27.233 -12.455  60.224  1.00  0.00     0.100 A 
HETATM    7  C   UNL     1      27.744 -12.173  61.483  1.00  0.00     0.039 A 
HETATM    8  C   UNL     1      28.289 -13.216  62.427  1.00  0.00     0.071 C 
ENDROOT
BRANCH   1   9
HETATM    9  C   UNL     1      26.196 -11.702  58.109  1.00  0.00     0.102 C 
BRANCH   9  10
HETATM   10  N   UNL     1      25.539 -12.823  57.909  1.00  0.00    -0.378 N 
ATOM     11  HN  UNL     1      25.617 -13.554  58.616  1.00  0.00     0.164 HD
BRANCH  10  12
HETATM   12  C   UNL     1      24.700 -13.090  56.736  1.00  0.00     0.061 C 
BRANCH  12  13
HETATM   13  C   UNL     1      23.891 -14.370  56.593  1.00  0.00     0.054 C 
BRANCH  13  14
HETATM   14  C   UNL     1      24.567 -15.523  55.904  1.00  0.00     0.078 C 
BRANCH  14  15
HETATM   15  S   UNL     1      23.174 -16.677  55.538  1.00  0.00    -0.173 SA
HETATM   16  C   UNL     1      22.099 -16.497  56.953  1.00  0.00     0.089 C 
ENDBRANCH  14  15
ENDBRANCH  13  14
ENDBRANCH  12  13
ENDBRANCH  10  12
ENDBRANCH   9  10
ENDBRANCH   1   9
BRANCH   2  17
HETATM   17  C   UNL     1      26.184  -8.885  59.188  1.00  0.00     0.223 C 
BRANCH  17  18
HETATM   18  O   UNL     1      27.175  -8.487  58.265  1.00  0.00    -0.278 OA
BRANCH  18  19
HETATM   19  P   UNL     1      26.700  -8.104  56.754  1.00  0.00     0.422 P 
HETATM   20  O   UNL     1      26.670  -6.633  56.754  1.00  0.00    -0.617 OA
HETATM   21  O   UNL     1      25.326  -8.673  56.601  1.00  0.00    -0.617 OA
HETATM   22  O   UNL     1      27.766  -8.721  56.000  1.00  0.00    -0.617 OA
ENDBRANCH  18  19
ENDBRANCH  17  18
ENDBRANCH   2  17
BRANCH   6  23
HETATM   23  O   UNL     1      27.281 -13.749  59.812  1.00  0.00    -0.358 OA
ATOM     24  HO  UNL     1      26.994 -14.460  60.372  1.00  0.00     0.217 HD
ENDBRANCH   6  23
TORSDOF 10
ENDMDL
MODEL 3
REMARK VINA RESULT:    -7.286      1.064      1.135
REMARK INTER + INTRA:         -12.215
REMARK INTER:                 -11.707
REMARK INTRA:                  -0.507
REMARK UNBOUND:                -0.882
REMARK  10 active torsions:
REMARK  status: ('A' for Active; 'I' for Inactive)
REMARK    1  A    between atoms: C_1  and  C_17 
REMARK    2  A    between atoms: C_2  and  C_12 
REMARK    3  A    between atoms: C_6  and  O_15 
REMARK    4  A    between atoms: P_8  and  O_11 
REMARK    5  A    between atoms: O_11  and  C_12 
REMARK    6  A    between atoms: C_17  and  N_18 
REMARK    7  A    between atoms: N_18  and  C_20 
REMARK    8  A    between atoms: C_20  and  C_21 
REMARK    9  A    between atoms: C_21  and  C_22 
REMARK   10  A    between atoms: C_22  and  S_23 
ROOT
HETATM    1  C   UNL     1      25.952 -13.524  57.961  1.00  0.00     0.024 A 
HETATM    2  C   UNL     1      25.398 -12.322  57.462  1.00  0.00    -0.004 A 
HETATM    3  C   UNL     1      24.403 -12.360  56.481  1.00  0.00     0.098 A 
HETATM    4  N   UNL     1      23.945 -13.530  56.005  1.00  0.00    -0.367 N 
ATOM      5  HN  UNL     1      23.214 -13.528  55.293  1.00  0.00     0.165 HD
HETATM    6  C   UNL     1      25.445 -14.734  57.405  1.00  0.00     0.100 A 
HETATM    7  C   UNL     1      24.435 -14.721  56.453  1.00  0.00     0.039 A 
HETATM    8  C   UNL     1      23.858 -15.962  55.816  1.00  0.00     0.071 C 
ENDROOT
BRANCH   1   9
HETATM    9  C   UNL     1      26.984 -13.528  58.918  1.00  0.00     0.102 C 
BRANCH   9  10
HETATM   10  N   UNL     1      26.746 -13.086  60.133  1.00  0.00    -0.378 N 
ATOM     11  HN  UNL     1      25.877 -13.372  60.583  1.00  0.00     0.164 HD
BRANCH  10  12
HETATM   12  C   UNL     1      27.651 -12.208  60.884  1.00  0.00     0.061 C 
BRANCH  12  13
HETATM   13  C   UNL     1      28.997 -11.768  60.329  1.00  0.00     0.054 C 
BRANCH  13  14
HETATM   14  C   UNL     1      30.109 -11.581  61.325  1.00  0.00     0.078 C 
BRANCH  14  15
HETATM   15  S   UNL     1      31.577 -12.294  60.463  1.00  0.00    -0.173 SA
HETATM   16  C   UNL     1      31.685 -11.338  58.959  1.00  0.00     0.089 C 
ENDBRANCH  14  15
ENDBRANCH  13  14
ENDBRANCH  12  13
ENDBRANCH  10  12
ENDBRANCH   9  10
ENDBRANCH   1   9
BRANCH   2  17
HETATM   17  C   UNL     1      25.849 -10.925  57.901  1.00  0.00     0.223 C 
BRANCH  17  18
HETATM   18  O   UNL     1      26.121 -10.198  56.722  1.00  0.00    -0.278 OA
BRANCH  18  19
HETATM   19  P   UNL     1      26.829  -8.738  56.873  1.00  0.00     0.422 P 
HETATM   20  O   UNL     1      27.352  -8.738  58.247  1.00  0.00    -0.617 OA
HETATM   21  O   UNL     1      25.733  -7.733  56.711  1.00  0.00    -0.617 OA
HETATM   22  O   UNL     1      27.809  -8.833  55.816  1.00  0.00    -0.617 OA
ENDBRANCH  18  19
ENDBRANCH  17  18
ENDBRANCH   2  17
BRANCH   6  23
HETATM   23  O   UNL     1      25.897 -15.948  57.812  1.00  0.00    -0.358 OA
ATOM     24  HO  UNL     1      26.025 -16.148  58.732  1.00  0.00     0.217 HD
ENDBRANCH   6  23
TORSDOF 10
ENDMDL
MODEL 4
REMARK VINA RESULT:    -7.212      1.297      1.607
REMARK INTER + INTRA:         -12.100
REMARK INTER:                 -11.590
REMARK INTRA:                  -0.510
REMARK UNBOUND:                -0.882
REMARK  10 active torsions:
REMARK  status: ('A' for Active; 'I' for Inactive)
REMARK    1  A    between atoms: C_1  and  C_17 
REMARK    2  A    between atoms: C_2  and  C_12 
REMARK    3  A    between atoms: C_6  and  O_15 
REMARK    4  A    between atoms: P_8  and  O_11 
REMARK    5  A    between atoms: O_11  and  C_12 
REMARK    6  A    between atoms: C_17  and  N_18 
REMARK    7  A    between atoms: N_18  and  C_20 
REMARK    8  A    between atoms: C_20  and  C_21 
REMARK    9  A    between atoms: C_21  and  C_22 
REMARK   10  A    between atoms: C_22  and  S_23 
ROOT
HETATM    1  C   UNL     1      25.675 -12.015  57.686  1.00  0.00     0.024 A 
HETATM    2  C   UNL     1      24.820 -11.288  56.826  1.00  0.00    -0.004 A 
HETATM    3  C   UNL     1      23.935 -11.962  55.979  1.00  0.00     0.098 A 
HETATM    4  N   UNL     1      23.869 -13.304  55.974  1.00  0.00    -0.367 N 
ATOM      5  HN  UNL     1      23.210 -13.769  55.349  1.00  0.00     0.165 HD
HETATM    6  C   UNL     1      25.579 -13.436  57.622  1.00  0.00     0.100 A 
HETATM    7  C   UNL     1      24.664 -14.059  56.786  1.00  0.00     0.039 A 
HETATM    8  C   UNL     1      24.514 -15.555  56.662  1.00  0.00     0.071 C 
ENDROOT
BRANCH   1   9
HETATM    9  C   UNL     1      26.609 -11.376  58.524  1.00  0.00     0.102 C 
BRANCH   9  10
HETATM   10  N   UNL     1      26.552 -11.563  59.823  1.00  0.00    -0.378 N 
ATOM     11  HN  UNL     1      26.228 -12.469  60.161  1.00  0.00     0.164 HD
BRANCH  10  12
HETATM   12  C   UNL     1      26.923 -10.552  60.820  1.00  0.00     0.061 C 
BRANCH  12  13
HETATM   13  C   UNL     1      28.329 -10.457  61.392  1.00  0.00     0.054 C 
BRANCH  13  14
HETATM   14  C   UNL     1      28.948 -11.738  61.878  1.00  0.00     0.078 C 
BRANCH  14  15
HETATM   15  S   UNL     1      27.970 -12.135  63.392  1.00  0.00    -0.173 SA
HETATM   16  C   UNL     1      27.860 -13.916  63.365  1.00  0.00     0.089 C 
ENDBRANCH  14  15
ENDBRANCH  13  14
ENDBRANCH  12  13
ENDBRANCH  10  12
ENDBRANCH   9  10
ENDBRANCH   1   9
BRANCH   2  17
HETATM   17  C   UNL     1      24.814  -9.760  56.718  1.00  0.00     0.223 C 
BRANCH  17  18
HETATM   18  O   UNL     1      26.089  -9.383  56.244  1.00  0.00    -0.278 OA
BRANCH  18  19
HETATM   19  P   UNL     1      26.846  -8.149  56.992  1.00  0.00     0.422 P 
HETATM   20  O   UNL     1      26.299  -8.173  58.357  1.00  0.00    -0.617 OA
HETATM   21  O   UNL     1      26.428  -6.911  56.264  1.00  0.00    -0.617 OA
HETATM   22  O   UNL     1      28.216  -8.579  56.845  1.00  0.00    -0.617 OA
ENDBRANCH  18  19
ENDBRANCH  17  18
ENDBRANCH   2  17
BRANCH   6  23
HETATM   23  O   UNL     1      26.347 -14.236  58.407  1.00  0.00    -0.358 OA
ATOM     24  HO  UNL     1      26.233 -15.179  58.417  1.00  0.00     0.217 HD
ENDBRANCH   6  23
TORSDOF 10
ENDMDL
MODEL 5
REMARK VINA RESULT:    -7.120      2.563      4.825
REMARK INTER + INTRA:         -11.956
REMARK INTER:                 -11.110
REMARK INTRA:                  -0.845
REMARK UNBOUND:                -0.882
REMARK  10 active torsions:
REMARK  status: ('A' for Active; 'I' for Inactive)
REMARK    1  A    between atoms: C_1  and  C_17 
REMARK    2  A    between atoms: C_2  and  C_12 
REMARK    3  A    between atoms: C_6  and  O_15 
REMARK    4  A    between atoms: P_8  and  O_11 
REMARK    5  A    between atoms: O_11  and  C_12 
REMARK    6  A    between atoms: C_17  and  N_18 
REMARK    7  A    between atoms: N_18  and  C_20 
REMARK    8  A    between atoms: C_20  and  C_21 
REMARK    9  A    between atoms: C_21  and  C_22 
REMARK   10  A    between atoms: C_22  and  S_23 
ROOT
HETATM    1  C   UNL     1      26.521 -11.355  58.744  1.00  0.00     0.024 A 
HETATM    2  C   UNL     1      25.810 -12.094  57.770  1.00  0.00    -0.004 A 
HETATM    3  C   UNL     1      25.293 -11.453  56.640  1.00  0.00     0.098 A 
HETATM    4  N   UNL     1      25.470 -10.135  56.450  1.00  0.00    -0.367 N 
ATOM      5  HN  UNL     1      25.086  -9.695  55.614  1.00  0.00     0.165 HD
HETATM    6  C   UNL     1      26.659  -9.957  58.503  1.00  0.00     0.100 A 
HETATM    7  C   UNL     1      26.153  -9.372  57.351  1.00  0.00     0.039 A 
HETATM    8  C   UNL     1      26.256  -7.900  57.036  1.00  0.00     0.071 C 
ENDROOT
BRANCH   1   9
HETATM    9  C   UNL     1      27.022 -11.954  59.915  1.00  0.00     0.102 C 
BRANCH   9  10
HETATM   10  N   UNL     1      26.855 -11.358  61.074  1.00  0.00    -0.378 N 
ATOM     11  HN  UNL     1      25.983 -10.852  61.228  1.00  0.00     0.164 HD
BRANCH  10  12
HETATM   12  C   UNL     1      27.841 -11.373  62.160  1.00  0.00     0.061 C 
BRANCH  12  13
HETATM   13  C   UNL     1      29.222 -11.986  61.992  1.00  0.00     0.054 C 
BRANCH  13  14
HETATM   14  C   UNL     1      30.306 -11.078  61.478  1.00  0.00     0.078 C 
BRANCH  14  15
HETATM   15  S   UNL     1      31.399 -12.217  60.523  1.00  0.00    -0.173 SA
HETATM   16  C   UNL     1      31.787 -11.289  59.049  1.00  0.00     0.089 C 
ENDBRANCH  14  15
ENDBRANCH  13  14
ENDBRANCH  12  13
ENDBRANCH  10  12
ENDBRANCH   9  10
ENDBRANCH   1   9
BRANCH   2  17
HETATM   17  C   UNL     1      25.517 -13.594  57.879  1.00  0.00     0.223 C 
BRANCH  17  18
HETATM   18  O   UNL     1      24.618 -13.908  56.837  1.00  0.00    -0.278 OA
BRANCH  18  19
HETATM   19  P   UNL     1      24.301 -15.481  56.552  1.00  0.00     0.422 P 
HETATM   20  O   UNL     1      24.508 -15.628  55.104  1.00  0.00    -0.617 OA
HETATM   21  O   UNL     1      22.864 -15.680  56.916  1.00  0.00    -0.617 OA
HETATM   22  O   UNL     1      25.295 -16.087  57.405  1.00  0.00    -0.617 OA
ENDBRANCH  18  19
ENDBRANCH  17  18
ENDBRANCH   2  17
BRANCH   6  23
HETATM   23  O   UNL     1      27.328  -9.150  59.366  1.00  0.00    -0.358 OA
ATOM     24  HO  UNL     1      26.947  -8.882  60.194  1.00  0.00     0.217 HD
ENDBRANCH   6  23
TORSDOF 10
ENDMDL
MODEL 6
REMARK VINA RESULT:    -6.697      3.799      6.083
REMARK INTER + INTRA:         -11.298
REMARK INTER:                 -10.890
REMARK INTRA:                  -0.409
REMARK UNBOUND:                -0.882
REMARK  10 active torsions:
REMARK  status: ('A' for Active; 'I' for Inactive)
REMARK    1  A    between atoms: C_1  and  C_17 
REMARK    2  A    between atoms: C_2  and  C_12 
REMARK    3  A    between atoms: C_6  and  O_15 
REMARK    4  A    between atoms: P_8  and  O_11 
REMARK    5  A    between atoms: O_11  and  C_12 
REMARK    6  A    between atoms: C_17  and  N_18 
REMARK    7  A    between atoms: N_18  and  C_20 
REMARK    8  A    between atoms: C_20  and  C_21 
REMARK    9  A    between atoms: C_21  and  C_22 
REMARK   10  A    between atoms: C_22  and  S_23 
ROOT
HETATM    1  C   UNL     1      26.901 -11.839  59.239  1.00  0.00     0.024 A 
HETATM    2  C   UNL     1      27.664 -11.028  60.110  1.00  0.00    -0.004 A 
HETATM    3  C   UNL     1      27.670  -9.639  59.954  1.00  0.00     0.098 A 
HETATM    4  N   UNL     1      26.946  -9.048  58.988  1.00  0.00    -0.367 N 
ATOM      5  HN  UNL     1      26.965  -8.032  58.901  1.00  0.00     0.165 HD
HETATM    6  C   UNL     1      26.171 -11.162  58.219  1.00  0.00     0.100 A 
HETATM    7  C   UNL     1      26.185  -9.777  58.123  1.00  0.00     0.039 A 
HETATM    8  C   UNL     1      25.444  -8.996  57.066  1.00  0.00     0.071 C 
ENDROOT
BRANCH   1   9
HETATM    9  C   UNL     1      26.900 -13.244  59.337  1.00  0.00     0.102 C 
BRANCH   9  10
HETATM   10  N   UNL     1      26.013 -13.942  58.664  1.00  0.00    -0.378 N 
ATOM     11  HN  UNL     1      25.031 -13.686  58.762  1.00  0.00     0.164 HD
BRANCH  10  12
HETATM   12  C   UNL     1      26.344 -15.066  57.782  1.00  0.00     0.061 C 
BRANCH  12  13
HETATM   13  C   UNL     1      25.526 -15.390  56.541  1.00  0.00     0.054 C 
BRANCH  13  14
HETATM   14  C   UNL     1      24.089 -14.947  56.546  1.00  0.00     0.078 C 
BRANCH  14  15
HETATM   15  S   UNL     1      23.180 -16.446  55.966  1.00  0.00    -0.173 SA
HETATM   16  C   UNL     1      21.894 -16.654  57.187  1.00  0.00     0.089 C 
ENDBRANCH  14  15
ENDBRANCH  13  14
ENDBRANCH  12  13
ENDBRANCH  10  12
ENDBRANCH   9  10
ENDBRANCH   1   9
BRANCH   2  17
HETATM   17  C   UNL     1      28.551 -11.577  61.233  1.00  0.00     0.223 C 
BRANCH  17  18
HETATM   18  O   UNL     1      29.678 -12.156  60.612  1.00  0.00    -0.278 OA
BRANCH  18  19
HETATM   19  P   UNL     1      31.084 -11.332  60.662  1.00  0.00     0.422 P 
HETATM   20  O   UNL     1      30.985 -10.538  61.896  1.00  0.00    -0.617 OA
HETATM   21  O   UNL     1      31.086 -10.454  59.452  1.00  0.00    -0.617 OA
HETATM   22  O   UNL     1      32.012 -12.438  60.687  1.00  0.00    -0.617 OA
ENDBRANCH  18  19
ENDBRANCH  17  18
ENDBRANCH   2  17
BRANCH   6  23
HETATM   23  O   UNL     1      25.398 -11.837  57.330  1.00  0.00    -0.358 OA
ATOM     24  HO  UNL     1      25.160 -12.746  57.468  1.00  0.00     0.217 HD
ENDBRANCH   6  23
TORSDOF 10
ENDMDL
MODEL 7
REMARK VINA RESULT:    -6.689      1.139      1.653
REMARK INTER + INTRA:         -11.286
REMARK INTER:                 -11.485
REMARK INTRA:                   0.199
REMARK UNBOUND:                -0.882
REMARK  10 active torsions:
REMARK  status: ('A' for Active; 'I' for Inactive)
REMARK    1  A    between atoms: C_1  and  C_17 
REMARK    2  A    between atoms: C_2  and  C_12 
REMARK    3  A    between atoms: C_6  and  O_15 
REMARK    4  A    between atoms: P_8  and  O_11 
REMARK    5  A    between atoms: O_11  and  C_12 
REMARK    6  A    between atoms: C_17  and  N_18 
REMARK    7  A    between atoms: N_18  and  C_20 
REMARK    8  A    between atoms: C_20  and  C_21 
REMARK    9  A    between atoms: C_21  and  C_22 
REMARK   10  A    between atoms: C_22  and  S_23 
ROOT
HETATM    1  C   UNL     1      25.883 -13.934  57.845  1.00  0.00     0.024 A 
HETATM    2  C   UNL     1      25.344 -12.703  57.403  1.00  0.00    -0.004 A 
HETATM    3  C   UNL     1      24.322 -12.684  56.450  1.00  0.00     0.098 A 
HETATM    4  N   UNL     1      23.824 -13.826  55.947  1.00  0.00    -0.367 N 
ATOM      5  HN  UNL     1      23.074 -13.782  55.256  1.00  0.00     0.165 HD
HETATM    6  C   UNL     1      25.333 -15.112  57.262  1.00  0.00     0.100 A 
HETATM    7  C   UNL     1      24.298 -15.043  56.340  1.00  0.00     0.039 A 
HETATM    8  C   UNL     1      23.675 -16.247  55.677  1.00  0.00     0.071 C 
ENDROOT
BRANCH   1   9
HETATM    9  C   UNL     1      26.940 -13.995  58.773  1.00  0.00     0.102 C 
BRANCH   9  10
HETATM   10  N   UNL     1      27.200 -12.955  59.533  1.00  0.00    -0.378 N 
ATOM     11  HN  UNL     1      27.474 -12.086  59.075  1.00  0.00     0.164 HD
BRANCH  10  12
HETATM   12  C   UNL     1      27.121 -12.962  60.998  1.00  0.00     0.061 C 
BRANCH  12  13
HETATM   13  C   UNL     1      27.421 -11.726  61.832  1.00  0.00     0.054 C 
BRANCH  13  14
HETATM   14  C   UNL     1      28.831 -11.579  62.336  1.00  0.00     0.078 C 
BRANCH  14  15
HETATM   15  S   UNL     1      29.745 -10.946  60.863  1.00  0.00    -0.173 SA
HETATM   16  C   UNL     1      30.872 -12.274  60.467  1.00  0.00     0.089 C 
ENDBRANCH  14  15
ENDBRANCH  13  14
ENDBRANCH  12  13
ENDBRANCH  10  12
ENDBRANCH   9  10
ENDBRANCH   1   9
BRANCH   2  17
HETATM   17  C   UNL     1      25.839 -11.333  57.878  1.00  0.00     0.223 C 
BRANCH  17  18
HETATM   18  O   UNL     1      26.188 -10.605  56.720  1.00  0.00    -0.278 OA
BRANCH  18  19
HETATM   19  P   UNL     1      26.651  -9.053  56.906  1.00  0.00     0.422 P 
HETATM   20  O   UNL     1      27.664  -8.857  55.858  1.00  0.00    -0.617 OA
HETATM   21  O   UNL     1      27.259  -8.969  58.270  1.00  0.00    -0.617 OA
HETATM   22  O   UNL     1      25.382  -8.396  56.699  1.00  0.00    -0.617 OA
ENDBRANCH  18  19
ENDBRANCH  17  18
ENDBRANCH   2  17
BRANCH   6  23
HETATM   23  O   UNL     1      25.767 -16.350  57.614  1.00  0.00    -0.358 OA
ATOM     24  HO  UNL     1      25.240 -16.927  58.154  1.00  0.00     0.217 HD
ENDBRANCH   6  23
TORSDOF 10
ENDMDL
MODEL 8
REMARK VINA RESULT:    -6.605      2.717      5.388
REMARK INTER + INTRA:         -11.155
REMARK INTER:                 -10.467
REMARK INTRA:                  -0.687
REMARK UNBOUND:                -0.882
REMARK  10 active torsions:
REMARK  status: ('A' for Active; 'I' for Inactive)
REMARK    1  A    between atoms: C_1  and  C_17 
REMARK    2  A    between atoms: C_2  and  C_12 
REMARK    3  A    between atoms: C_6  and  O_15 
REMARK    4  A    between atoms: P_8  and  O_11 
REMARK    5  A    between atoms: O_11  and  C_12 
REMARK    6  A    between atoms: C_17  and  N_18 
REMARK    7  A    between atoms: N_18  and  C_20 
REMARK    8  A    between atoms: C_20  and  C_21 
REMARK    9  A    between atoms: C_21  and  C_22 
REMARK   10  A    between atoms: C_22  and  S_23 
ROOT
HETATM    1  C   UNL     1      28.138 -11.525  60.410  1.00  0.00     0.024 A 
HETATM    2  C   UNL     1      28.116 -10.528  59.407  1.00  0.00    -0.004 A 
HETATM    3  C   UNL     1      29.312 -10.044  58.870  1.00  0.00     0.098 A 
HETATM    4  N   UNL     1      30.499 -10.521  59.281  1.00  0.00    -0.367 N 
ATOM      5  HN  UNL     1      31.356 -10.153  58.867  1.00  0.00     0.165 HD
HETATM    6  C   UNL     1      29.424 -11.978  60.824  1.00  0.00     0.100 A 
HETATM    7  C   UNL     1      30.583 -11.488  60.239  1.00  0.00     0.039 A 
HETATM    8  C   UNL     1      31.975 -11.916  60.634  1.00  0.00     0.071 C 
ENDROOT
BRANCH   1   9
HETATM    9  C   UNL     1      26.959 -12.009  61.006  1.00  0.00     0.102 C 
BRANCH   9  10
HETATM   10  N   UNL     1      26.357 -13.061  60.498  1.00  0.00    -0.378 N 
ATOM     11  HN  UNL     1      25.600 -13.484  61.036  1.00  0.00     0.164 HD
BRANCH  10  12
HETATM   12  C   UNL     1      26.704 -13.667  59.208  1.00  0.00     0.061 C 
BRANCH  12  13
HETATM   13  C   UNL     1      25.744 -13.664  58.028  1.00  0.00     0.054 C 
BRANCH  13  14
HETATM   14  C   UNL     1      25.644 -14.938  57.236  1.00  0.00     0.078 C 
BRANCH  14  15
HETATM   15  S   UNL     1      24.078 -14.724  56.282  1.00  0.00    -0.173 SA
HETATM   16  C   UNL     1      23.199 -16.251  56.572  1.00  0.00     0.089 C 
ENDBRANCH  14  15
ENDBRANCH  13  14
ENDBRANCH  12  13
ENDBRANCH  10  12
ENDBRANCH   9  10
ENDBRANCH   1   9
BRANCH   2  17
HETATM   17  C   UNL     1      26.834  -9.883  58.871  1.00  0.00     0.223 C 
BRANCH  17  18
HETATM   18  O   UNL     1      27.193  -8.603  58.395  1.00  0.00    -0.278 OA
BRANCH  18  19
HETATM   19  P   UNL     1      26.677  -8.169  56.911  1.00  0.00     0.422 P 
HETATM   20  O   UNL     1      25.333  -8.758  56.817  1.00  0.00    -0.617 OA
HETATM   21  O   UNL     1      27.620  -8.815  55.946  1.00  0.00    -0.617 OA
HETATM   22  O   UNL     1      26.738  -6.732  57.044  1.00  0.00    -0.617 OA
ENDBRANCH  18  19
ENDBRANCH  17  18
ENDBRANCH   2  17
BRANCH   6  23
HETATM   23  O   UNL     1      29.568 -12.938  61.775  1.00  0.00    -0.358 OA
ATOM     24  HO  UNL     1      30.146 -12.818  62.519  1.00  0.00     0.217 HD
ENDBRANCH   6  23
TORSDOF 10
ENDMDL
MODEL 9
REMARK VINA RESULT:    -6.563      3.109      5.146
REMARK INTER + INTRA:         -11.091
REMARK INTER:                 -10.630
REMARK INTRA:                  -0.461
REMARK UNBOUND:                -0.882
REMARK  10 active torsions:
REMARK  status: ('A' for Active; 'I' for Inactive)
REMARK    1  A    between atoms: C_1  and  C_17 
REMARK    2  A    between atoms: C_2  and  C_12 
REMARK    3  A    between atoms: C_6  and  O_15 
REMARK    4  A    between atoms: P_8  and  O_11 
REMARK    5  A    between atoms: O_11  and  C_12 
REMARK    6  A    between atoms: C_17  and  N_18 
REMARK    7  A    between atoms: N_18  and  C_20 
REMARK    8  A    between atoms: C_20  and  C_21 
REMARK    9  A    between atoms: C_21  and  C_22 
REMARK   10  A    between atoms: C_22  and  S_23 
ROOT
HETATM    1  C   UNL     1      25.706 -12.884  57.943  1.00  0.00     0.024 A 
HETATM    2  C   UNL     1      24.782 -13.531  57.089  1.00  0.00    -0.004 A 
HETATM    3  C   UNL     1      24.073 -12.797  56.135  1.00  0.00     0.098 A 
HETATM    4  N   UNL     1      24.262 -11.474  55.998  1.00  0.00    -0.367 N 
ATOM      5  HN  UNL     1      23.735 -10.964  55.289  1.00  0.00     0.165 HD
HETATM    6  C   UNL     1      25.850 -11.477  57.770  1.00  0.00     0.100 A 
HETATM    7  C   UNL     1      25.145 -10.796  56.788  1.00  0.00     0.039 A 
HETATM    8  C   UNL     1      25.242  -9.309  56.555  1.00  0.00     0.071 C 
ENDROOT
BRANCH   1   9
HETATM    9  C   UNL     1      26.409 -13.580  58.945  1.00  0.00     0.102 C 
BRANCH   9  10
HETATM   10  N   UNL     1      27.394 -12.986  59.580  1.00  0.00    -0.378 N 
ATOM     11  HN  UNL     1      28.090 -12.489  59.024  1.00  0.00     0.164 HD
BRANCH  10  12
HETATM   12  C   UNL     1      27.557 -12.989  61.038  1.00  0.00     0.061 C 
BRANCH  12  13
HETATM   13  C   UNL     1      28.307 -11.888  61.772  1.00  0.00     0.054 C 
BRANCH  13  14
HETATM   14  C   UNL     1      29.074 -10.912  60.923  1.00  0.00     0.078 C 
BRANCH  14  15
HETATM   15  S   UNL     1      30.825 -11.183  61.440  1.00  0.00    -0.173 SA
HETATM   16  C   UNL     1      31.418 -12.411  60.288  1.00  0.00     0.089 C 
ENDBRANCH  14  15
ENDBRANCH  13  14
ENDBRANCH  12  13
ENDBRANCH  10  12
ENDBRANCH   9  10
ENDBRANCH   1   9
BRANCH   2  17
HETATM   17  C   UNL     1      24.456 -15.027  57.158  1.00  0.00     0.223 C 
BRANCH  17  18
HETATM   18  O   UNL     1      23.517 -15.284  56.137  1.00  0.00    -0.278 OA
BRANCH  18  19
HETATM   19  P   UNL     1      22.316 -16.339  56.454  1.00  0.00     0.422 P 
HETATM   20  O   UNL     1      21.090 -15.581  56.161  1.00  0.00    -0.617 OA
HETATM   21  O   UNL     1      22.422 -16.653  57.912  1.00  0.00    -0.617 OA
HETATM   22  O   UNL     1      22.659 -17.385  55.519  1.00  0.00    -0.617 OA
ENDBRANCH  18  19
ENDBRANCH  17  18
ENDBRANCH   2  17
BRANCH   6  23
HETATM   23  O   UNL     1      26.712 -10.752  58.529  1.00  0.00    -0.358 OA
ATOM     24  HO  UNL     1      26.670  -9.803  58.561  1.00  0.00     0.217 HD
ENDBRANCH   6  23
TORSDOF 10
ENDMDL
MODEL 10
REMARK VINA RESULT:    -5.849     11.481     12.983
REMARK INTER + INTRA:          -9.980
REMARK INTER:                  -9.073
REMARK INTRA:                  -0.907
REMARK UNBOUND:                -0.882
REMARK  10 active torsions:
REMARK  status: ('A' for Active; 'I' for Inactive)
REMARK    1  A    between atoms: C_1  and  C_17 
REMARK    2  A    between atoms: C_2  and  C_12 
REMARK    3  A    between atoms: C_6  and  O_15 
REMARK    4  A    between atoms: P_8  and  O_11 
REMARK    5  A    between atoms: O_11  and  C_12 
REMARK    6  A    between atoms: C_17  and  N_18 
REMARK    7  A    between atoms: N_18  and  C_20 
REMARK    8  A    between atoms: C_20  and  C_21 
REMARK    9  A    between atoms: C_21  and  C_22 
REMARK   10  A    between atoms: C_22  and  S_23 
ROOT
HETATM    1  C   UNL     1      18.869 -18.275  64.704  1.00  0.00     0.024 A 
HETATM    2  C   UNL     1      18.897 -16.928  64.273  1.00  0.00    -0.004 A 
HETATM    3  C   UNL     1      19.776 -16.532  63.261  1.00  0.00     0.098 A 
HETATM    4  N   UNL     1      20.596 -17.417  62.670  1.00  0.00    -0.367 N 
ATOM      5  HN  UNL     1      21.224 -17.100  61.931  1.00  0.00     0.165 HD
HETATM    6  C   UNL     1      19.776 -19.166  64.059  1.00  0.00     0.100 A 
HETATM    7  C   UNL     1      20.609 -18.730  63.038  1.00  0.00     0.039 A 
HETATM    8  C   UNL     1      21.598 -19.614  62.319  1.00  0.00     0.071 C 
ENDROOT
BRANCH   1   9
HETATM    9  C   UNL     1      18.029 -18.707  65.748  1.00  0.00     0.102 C 
BRANCH   9  10
HETATM   10  N   UNL     1      16.871 -19.259  65.464  1.00  0.00    -0.378 N 
ATOM     11  HN  UNL     1      16.174 -18.687  64.987  1.00  0.00     0.164 HD
BRANCH  10  12
HETATM   12  C   UNL     1      16.515 -20.644  65.790  1.00  0.00     0.061 C 
BRANCH  12  13
HETATM   13  C   UNL     1      16.682 -21.780  64.791  1.00  0.00     0.054 C 
BRANCH  13  14
HETATM   14  C   UNL     1      17.066 -23.121  65.353  1.00  0.00     0.078 C 
BRANCH  14  15
HETATM   15  S   UNL     1      17.600 -22.725  67.074  1.00  0.00    -0.173 SA
HETATM   16  C   UNL     1      19.383 -22.745  66.976  1.00  0.00     0.089 C 
ENDBRANCH  14  15
ENDBRANCH  13  14
ENDBRANCH  12  13
ENDBRANCH  10  12
ENDBRANCH   9  10
ENDBRANCH   1   9
BRANCH   2  17
HETATM   17  C   UNL     1      18.033 -15.818  64.880  1.00  0.00     0.223 C 
BRANCH  17  18
HETATM   18  O   UNL     1      18.518 -14.598  64.360  1.00  0.00    -0.278 OA
BRANCH  18  19
HETATM   19  P   UNL     1      17.484 -13.341  64.277  1.00  0.00     0.422 P 
HETATM   20  O   UNL     1      16.257 -13.848  64.909  1.00  0.00    -0.617 OA
HETATM   21  O   UNL     1      17.274 -13.081  62.819  1.00  0.00    -0.617 OA
HETATM   22  O   UNL     1      18.233 -12.361  65.028  1.00  0.00    -0.617 OA
ENDBRANCH  18  19
ENDBRANCH  17  18
ENDBRANCH   2  17
BRANCH   6  23
HETATM   23  O   UNL     1      19.833 -20.483  64.386  1.00  0.00    -0.358 OA
ATOM     24  HO  UNL     1      20.308 -21.108  63.851  1.00  0.00     0.217 HD
ENDBRANCH   6  23
TORSDOF 10
ENDMDL
MODEL 11
REMARK VINA RESULT:    -5.808     12.117     14.258
REMARK INTER + INTRA:          -9.916
REMARK INTER:                  -8.918
REMARK INTRA:                  -0.997
REMARK UNBOUND:                -0.882
REMARK  10 active torsions:
REMARK  status: ('A' for Active; 'I' for Inactive)
REMARK    1  A    between atoms: C_1  and  C_17 
REMARK    2  A    between atoms: C_2  and  C_12 
REMARK    3  A    between atoms: C_6  and  O_15 
REMARK    4  A    between atoms: P_8  and  O_11 
REMARK    5  A    between atoms: O_11  and  C_12 
REMARK    6  A    between atoms: C_17  and  N_18 
REMARK    7  A    between atoms: N_18  and  C_20 
REMARK    8  A    between atoms: C_20  and  C_21 
REMARK    9  A    between atoms: C_21  and  C_22 
REMARK   10  A    between atoms: C_22  and  S_23 
ROOT
HETATM    1  C   UNL     1      18.150 -17.832  64.825  1.00  0.00     0.024 A 
HETATM    2  C   UNL     1      18.298 -19.226  65.014  1.00  0.00    -0.004 A 
HETATM    3  C   UNL     1      19.353 -19.910  64.404  1.00  0.00     0.098 A 
HETATM    4  N   UNL     1      20.251 -19.262  63.643  1.00  0.00    -0.367 N 
ATOM      5  HN  UNL     1      21.014 -19.786  63.215  1.00  0.00     0.165 HD
HETATM    6  C   UNL     1      19.117 -17.200  63.991  1.00  0.00     0.100 A 
HETATM    7  C   UNL     1      20.165 -17.917  63.431  1.00  0.00     0.039 A 
HETATM    8  C   UNL     1      21.217 -17.315  62.533  1.00  0.00     0.071 C 
ENDROOT
BRANCH   1   9
HETATM    9  C   UNL     1      17.078 -17.113  65.388  1.00  0.00     0.102 C 
BRANCH   9  10
HETATM   10  N   UNL     1      16.111 -16.676  64.614  1.00  0.00    -0.378 N 
ATOM     11  HN  UNL     1      15.758 -17.303  63.891  1.00  0.00     0.164 HD
BRANCH  10  12
HETATM   12  C   UNL     1      15.504 -15.345  64.722  1.00  0.00     0.061 C 
BRANCH  12  13
HETATM   13  C   UNL     1      15.506 -14.357  63.566  1.00  0.00     0.054 C 
BRANCH  13  14
HETATM   14  C   UNL     1      16.643 -13.375  63.519  1.00  0.00     0.078 C 
BRANCH  14  15
HETATM   15  S   UNL     1      16.889 -12.924  65.291  1.00  0.00    -0.173 SA
HETATM   16  C   UNL     1      18.652 -12.672  65.419  1.00  0.00     0.089 C 
ENDBRANCH  14  15
ENDBRANCH  13  14
ENDBRANCH  12  13
ENDBRANCH  10  12
ENDBRANCH   9  10
ENDBRANCH   1   9
BRANCH   2  17
HETATM   17  C   UNL     1      17.330 -20.085  65.834  1.00  0.00     0.223 C 
BRANCH  17  18
HETATM   18  O   UNL     1      17.094 -21.258  65.084  1.00  0.00    -0.278 OA
BRANCH  18  19
HETATM   19  P   UNL     1      17.230 -22.691  65.847  1.00  0.00     0.422 P 
HETATM   20  O   UNL     1      15.844 -23.044  66.189  1.00  0.00    -0.617 OA
HETATM   21  O   UNL     1      18.041 -22.425  67.075  1.00  0.00    -0.617 OA
HETATM   22  O   UNL     1      17.846 -23.467  64.796  1.00  0.00    -0.617 OA
ENDBRANCH  18  19
ENDBRANCH  17  18
ENDBRANCH   2  17
BRANCH   6  23
HETATM   23  O   UNL     1      19.079 -15.864  63.745  1.00  0.00    -0.358 OA
ATOM     24  HO  UNL     1      19.744 -15.437  63.217  1.00  0.00     0.217 HD
ENDBRANCH   6  23
TORSDOF 10
ENDMDL
MODEL 12
REMARK VINA RESULT:    -5.760     12.484     13.795
REMARK INTER + INTRA:          -9.842
REMARK INTER:                  -9.004
REMARK INTRA:                  -0.838
REMARK UNBOUND:                -0.882
REMARK  10 active torsions:
REMARK  status: ('A' for Active; 'I' for Inactive)
REMARK    1  A    between atoms: C_1  and  C_17 
REMARK    2  A    between atoms: C_2  and  C_12 
REMARK    3  A    between atoms: C_6  and  O_15 
REMARK    4  A    between atoms: P_8  and  O_11 
REMARK    5  A    between atoms: O_11  and  C_12 
REMARK    6  A    between atoms: C_17  and  N_18 
REMARK    7  A    between atoms: N_18  and  C_20 
REMARK    8  A    between atoms: C_20  and  C_21 
REMARK    9  A    between atoms: C_21  and  C_22 
REMARK   10  A    between atoms: C_22  and  S_23 
ROOT
HETATM    1  C   UNL     1      16.131 -14.995  64.175  1.00  0.00     0.024 A 
HETATM    2  C   UNL     1      16.506 -13.796  64.825  1.00  0.00    -0.004 A 
HETATM    3  C   UNL     1      16.451 -12.579  64.142  1.00  0.00     0.098 A 
HETATM    4  N   UNL     1      16.031 -12.519  62.867  1.00  0.00    -0.367 N 
ATOM      5  HN  UNL     1      15.996 -11.616  62.394  1.00  0.00     0.165 HD
HETATM    6  C   UNL     1      15.716 -14.876  62.817  1.00  0.00     0.100 A 
HETATM    7  C   UNL     1      15.650 -13.640  62.190  1.00  0.00     0.039 A 
HETATM    8  C   UNL     1      15.228 -13.442  60.755  1.00  0.00     0.071 C 
ENDROOT
BRANCH   1   9
HETATM    9  C   UNL     1      16.211 -16.247  64.815  1.00  0.00     0.102 C 
BRANCH   9  10
HETATM   10  N   UNL     1      15.168 -17.046  64.813  1.00  0.00    -0.378 N 
ATOM     11  HN  UNL     1      14.449 -16.890  64.107  1.00  0.00     0.164 HD
BRANCH  10  12
HETATM   12  C   UNL     1      14.970 -18.148  65.761  1.00  0.00     0.061 C 
BRANCH  12  13
HETATM   13  C   UNL     1      16.083 -19.124  66.112  1.00  0.00     0.054 C 
BRANCH  13  14
HETATM   14  C   UNL     1      15.757 -20.588  66.001  1.00  0.00     0.078 C 
BRANCH  14  15
HETATM   15  S   UNL     1      17.240 -21.293  65.159  1.00  0.00    -0.173 SA
HETATM   16  C   UNL     1      16.834 -23.021  64.970  1.00  0.00     0.089 C 
ENDBRANCH  14  15
ENDBRANCH  13  14
ENDBRANCH  12  13
ENDBRANCH  10  12
ENDBRANCH   9  10
ENDBRANCH   1   9
BRANCH   2  17
HETATM   17  C   UNL     1      17.025 -13.731  66.265  1.00  0.00     0.223 C 
BRANCH  17  18
HETATM   18  O   UNL     1      18.407 -14.017  66.211  1.00  0.00    -0.278 OA
BRANCH  18  19
HETATM   19  P   UNL     1      19.006 -15.088  67.283  1.00  0.00     0.422 P 
HETATM   20  O   UNL     1      20.198 -14.419  67.825  1.00  0.00    -0.617 OA
HETATM   21  O   UNL     1      19.378 -16.298  66.487  1.00  0.00    -0.617 OA
HETATM   22  O   UNL     1      17.875 -15.198  68.174  1.00  0.00    -0.617 OA
ENDBRANCH  18  19
ENDBRANCH  17  18
ENDBRANCH   2  17
BRANCH   6  23
HETATM   23  O   UNL     1      15.326 -15.959  62.095  1.00  0.00    -0.358 OA
ATOM     24  HO  UNL     1      15.573 -16.841  62.349  1.00  0.00     0.217 HD
ENDBRANCH   6  23
TORSDOF 10
ENDMDL
MODEL 13
REMARK VINA RESULT:    -5.658      2.724      4.971
REMARK INTER + INTRA:          -9.682
REMARK INTER:                  -9.179
REMARK INTRA:                  -0.503
REMARK UNBOUND:                -0.882
REMARK  10 active torsions:
REMARK  status: ('A' for Active; 'I' for Inactive)
REMARK    1  A    between atoms: C_1  and  C_17 
REMARK    2  A    between atoms: C_2  and  C_12 
REMARK    3  A    between atoms: C_6  and  O_15 
REMARK    4  A    between atoms: P_8  and  O_11 
REMARK    5  A    between atoms: O_11  and  C_12 
REMARK    6  A    between atoms: C_17  and  N_18 
REMARK    7  A    between atoms: N_18  and  C_20 
REMARK    8  A    between atoms: C_20  and  C_21 
REMARK    9  A    between atoms: C_21  and  C_22 
REMARK   10  A    between atoms: C_22  and  S_23 
ROOT
HETATM    1  C   UNL     1      26.187 -11.332  58.349  1.00  0.00     0.024 A 
HETATM    2  C   UNL     1      25.413 -11.819  57.270  1.00  0.00    -0.004 A 
HETATM    3  C   UNL     1      25.046 -10.966  56.226  1.00  0.00     0.098 A 
HETATM    4  N   UNL     1      25.430  -9.678  56.217  1.00  0.00    -0.367 N 
ATOM      5  HN  UNL     1      25.152  -9.079  55.439  1.00  0.00     0.165 HD
HETATM    6  C   UNL     1      26.546  -9.954  58.300  1.00  0.00     0.100 A 
HETATM    7  C   UNL     1      26.183  -9.153  57.226  1.00  0.00     0.039 A 
HETATM    8  C   UNL     1      26.521  -7.687  57.112  1.00  0.00     0.071 C 
ENDROOT
BRANCH   1   9
HETATM    9  C   UNL     1      26.542 -12.148  59.440  1.00  0.00     0.102 C 
BRANCH   9  10
HETATM   10  N   UNL     1      27.686 -12.796  59.423  1.00  0.00    -0.378 N 
ATOM     11  HN  UNL     1      27.679 -13.767  59.114  1.00  0.00     0.164 HD
BRANCH  10  12
HETATM   12  C   UNL     1      28.971 -12.211  59.820  1.00  0.00     0.061 C 
BRANCH  12  13
HETATM   13  C   UNL     1      29.154 -11.477  61.139  1.00  0.00     0.054 C 
BRANCH  13  14
HETATM   14  C   UNL     1      29.307 -12.328  62.370  1.00  0.00     0.078 C 
BRANCH  14  15
HETATM   15  S   UNL     1      27.595 -12.396  63.056  1.00  0.00    -0.173 SA
HETATM   16  C   UNL     1      26.854 -10.875  62.485  1.00  0.00     0.089 C 
ENDBRANCH  14  15
ENDBRANCH  13  14
ENDBRANCH  12  13
ENDBRANCH  10  12
ENDBRANCH   9  10
ENDBRANCH   1   9
BRANCH   2  17
HETATM   17  C   UNL     1      24.891 -13.256  57.172  1.00  0.00     0.223 C 
BRANCH  17  18
HETATM   18  O   UNL     1      26.010 -14.104  57.316  1.00  0.00    -0.278 OA
BRANCH  18  19
HETATM   19  P   UNL     1      25.834 -15.674  56.917  1.00  0.00     0.422 P 
HETATM   20  O   UNL     1      26.064 -15.699  55.465  1.00  0.00    -0.617 OA
HETATM   21  O   UNL     1      24.417 -16.023  57.246  1.00  0.00    -0.617 OA
HETATM   22  O   UNL     1      26.871 -16.252  57.739  1.00  0.00    -0.617 OA
ENDBRANCH  18  19
ENDBRANCH  17  18
ENDBRANCH   2  17
BRANCH   6  23
HETATM   23  O   UNL     1      27.294  -9.378  59.277  1.00  0.00    -0.358 OA
ATOM     24  HO  UNL     1      27.344  -9.751  60.149  1.00  0.00     0.217 HD
ENDBRANCH   6  23
TORSDOF 10
ENDMDL
MODEL 14
REMARK VINA RESULT:    -5.623      3.675      6.203
REMARK INTER + INTRA:          -9.628
REMARK INTER:                  -9.555
REMARK INTRA:                  -0.074
REMARK UNBOUND:                -0.882
REMARK  10 active torsions:
REMARK  status: ('A' for Active; 'I' for Inactive)
REMARK    1  A    between atoms: C_1  and  C_17 
REMARK    2  A    between atoms: C_2  and  C_12 
REMARK    3  A    between atoms: C_6  and  O_15 
REMARK    4  A    between atoms: P_8  and  O_11 
REMARK    5  A    between atoms: O_11  and  C_12 
REMARK    6  A    between atoms: C_17  and  N_18 
REMARK    7  A    between atoms: N_18  and  C_20 
REMARK    8  A    between atoms: C_20  and  C_21 
REMARK    9  A    between atoms: C_21  and  C_22 
REMARK   10  A    between atoms: C_22  and  S_23 
ROOT
HETATM    1  C   UNL     1      27.813 -10.779  60.667  1.00  0.00     0.024 A 
HETATM    2  C   UNL     1      29.101 -11.243  60.316  1.00  0.00    -0.004 A 
HETATM    3  C   UNL     1      29.718 -12.244  61.072  1.00  0.00     0.098 A 
HETATM    4  N   UNL     1      29.100 -12.792  62.131  1.00  0.00    -0.367 N 
ATOM      5  HN  UNL     1      29.572 -13.525  62.661  1.00  0.00     0.165 HD
HETATM    6  C   UNL     1      27.213 -11.379  61.813  1.00  0.00     0.100 A 
HETATM    7  C   UNL     1      27.854 -12.391  62.514  1.00  0.00     0.039 A 
HETATM    8  C   UNL     1      27.283 -13.063  63.738  1.00  0.00     0.071 C 
ENDROOT
BRANCH   1   9
HETATM    9  C   UNL     1      27.174  -9.744  59.958  1.00  0.00     0.102 C 
BRANCH   9  10
HETATM   10  N   UNL     1      26.871  -9.915  58.691  1.00  0.00    -0.378 N 
ATOM     11  HN  UNL     1      27.128  -9.177  58.035  1.00  0.00     0.164 HD
BRANCH  10  12
HETATM   12  C   UNL     1      26.187 -11.098  58.157  1.00  0.00     0.061 C 
BRANCH  12  13
HETATM   13  C   UNL     1      25.267 -11.026  56.948  1.00  0.00     0.054 C 
BRANCH  13  14
HETATM   14  C   UNL     1      24.660 -12.321  56.483  1.00  0.00     0.078 C 
BRANCH  14  15
HETATM   15  S   UNL     1      25.439 -13.576  57.589  1.00  0.00    -0.173 SA
HETATM   16  C   UNL     1      25.221 -15.110  56.701  1.00  0.00     0.089 C 
ENDBRANCH  14  15
ENDBRANCH  13  14
ENDBRANCH  12  13
ENDBRANCH  10  12
ENDBRANCH   9  10
ENDBRANCH   1   9
BRANCH   2  17
HETATM   17  C   UNL     1      29.923 -10.685  59.149  1.00  0.00     0.223 C 
BRANCH  17  18
HETATM   18  O   UNL     1      31.114 -10.169  59.703  1.00  0.00    -0.278 OA
BRANCH  18  19
HETATM   19  P   UNL     1      32.511 -10.933  59.353  1.00  0.00     0.422 P 
HETATM   20  O   UNL     1      32.273 -11.514  58.023  1.00  0.00    -0.617 OA
HETATM   21  O   UNL     1      32.664 -11.999  60.391  1.00  0.00    -0.617 OA
HETATM   22  O   UNL     1      33.420  -9.812  59.408  1.00  0.00    -0.617 OA
ENDBRANCH  18  19
ENDBRANCH  17  18
ENDBRANCH   2  17
BRANCH   6  23
HETATM   23  O   UNL     1      25.975 -11.017  62.240  1.00  0.00    -0.358 OA
ATOM     24  HO  UNL     1      25.627 -10.149  62.076  1.00  0.00     0.217 HD
ENDBRANCH   6  23
TORSDOF 10
ENDMDL
MODEL 15
REMARK VINA RESULT:    -5.590     11.746     13.683
REMARK INTER + INTRA:          -9.576
REMARK INTER:                  -8.763
REMARK INTRA:                  -0.813
REMARK UNBOUND:                -0.882
REMARK  10 active torsions:
REMARK  status: ('A' for Active; 'I' for Inactive)
REMARK    1  A    between atoms: C_1  and  C_17 
REMARK    2  A    between atoms: C_2  and  C_12 
REMARK    3  A    between atoms: C_6  and  O_15 
REMARK    4  A    between atoms: P_8  and  O_11 
REMARK    5  A    between atoms: O_11  and  C_12 
REMARK    6  A    between atoms: C_17  and  N_18 
REMARK    7  A    between atoms: N_18  and  C_20 
REMARK    8  A    between atoms: C_20  and  C_21 
REMARK    9  A    between atoms: C_21  and  C_22 
REMARK   10  A    between atoms: C_22  and  S_23 
ROOT
HETATM    1  C   UNL     1      18.753 -16.962  64.417  1.00  0.00     0.024 A 
HETATM    2  C   UNL     1      18.187 -18.024  65.159  1.00  0.00    -0.004 A 
HETATM    3  C   UNL     1      18.636 -19.334  64.969  1.00  0.00     0.098 A 
HETATM    4  N   UNL     1      19.617 -19.608  64.093  1.00  0.00    -0.367 N 
ATOM      5  HN  UNL     1      19.929 -20.573  63.978  1.00  0.00     0.165 HD
HETATM    6  C   UNL     1      19.774 -17.313  63.486  1.00  0.00     0.100 A 
HETATM    7  C   UNL     1      20.207 -18.625  63.354  1.00  0.00     0.039 A 
HETATM    8  C   UNL     1      21.275 -19.069  62.385  1.00  0.00     0.071 C 
ENDROOT
BRANCH   1   9
HETATM    9  C   UNL     1      18.301 -15.635  64.549  1.00  0.00     0.102 C 
BRANCH   9  10
HETATM   10  N   UNL     1      18.270 -14.850  63.496  1.00  0.00    -0.378 N 
ATOM     11  HN  UNL     1      18.700 -15.190  62.635  1.00  0.00     0.164 HD
BRANCH  10  12
HETATM   12  C   UNL     1      17.656 -13.518  63.476  1.00  0.00     0.061 C 
BRANCH  12  13
HETATM   13  C   UNL     1      16.383 -13.202  64.247  1.00  0.00     0.054 C 
BRANCH  13  14
HETATM   14  C   UNL     1      15.287 -12.509  63.485  1.00  0.00     0.078 C 
BRANCH  14  15
HETATM   15  S   UNL     1      14.827 -13.739  62.188  1.00  0.00    -0.173 SA
HETATM   16  C   UNL     1      15.235 -12.910  60.661  1.00  0.00     0.089 C 
ENDBRANCH  14  15
ENDBRANCH  13  14
ENDBRANCH  12  13
ENDBRANCH  10  12
ENDBRANCH   9  10
ENDBRANCH   1   9
BRANCH   2  17
HETATM   17  C   UNL     1      17.047 -17.849  66.169  1.00  0.00     0.223 C 
BRANCH  17  18
HETATM   18  O   UNL     1      17.650 -17.627  67.426  1.00  0.00    -0.278 OA
BRANCH  18  19
HETATM   19  P   UNL     1      17.420 -18.744  68.589  1.00  0.00     0.422 P 
HETATM   20  O   UNL     1      18.687 -19.492  68.618  1.00  0.00    -0.617 OA
HETATM   21  O   UNL     1      16.294 -19.605  68.112  1.00  0.00    -0.617 OA
HETATM   22  O   UNL     1      17.165 -17.875  69.714  1.00  0.00    -0.617 OA
ENDBRANCH  18  19
ENDBRANCH  17  18
ENDBRANCH   2  17
BRANCH   6  23
HETATM   23  O   UNL     1      20.395 -16.376  62.724  1.00  0.00    -0.358 OA
ATOM     24  HO  UNL     1      20.615 -15.519  63.070  1.00  0.00     0.217 HD
ENDBRANCH   6  23
TORSDOF 10
ENDMDL
MODEL 16
REMARK VINA RESULT:    -5.567      3.812      6.307
REMARK INTER + INTRA:          -9.540
REMARK INTER:                  -8.851
REMARK INTRA:                  -0.689
REMARK UNBOUND:                -0.882
REMARK  10 active torsions:
REMARK  status: ('A' for Active; 'I' for Inactive)
REMARK    1  A    between atoms: C_1  and  C_17 
REMARK    2  A    between atoms: C_2  and  C_12 
REMARK    3  A    between atoms: C_6  and  O_15 
REMARK    4  A    between atoms: P_8  and  O_11 
REMARK    5  A    between atoms: O_11  and  C_12 
REMARK    6  A    between atoms: C_17  and  N_18 
REMARK    7  A    between atoms: N_18  and  C_20 
REMARK    8  A    between atoms: C_20  and  C_21 
REMARK    9  A    between atoms: C_21  and  C_22 
REMARK   10  A    between atoms: C_22  and  S_23 
ROOT
HETATM    1  C   UNL     1      26.489 -12.376  58.664  1.00  0.00     0.024 A 
HETATM    2  C   UNL     1      27.539 -11.805  59.419  1.00  0.00    -0.004 A 
HETATM    3  C   UNL     1      27.810 -10.437  59.326  1.00  0.00     0.098 A 
HETATM    4  N   UNL     1      27.074  -9.639  58.535  1.00  0.00    -0.367 N 
ATOM      5  HN  UNL     1      27.291  -8.643  58.491  1.00  0.00     0.165 HD
HETATM    6  C   UNL     1      25.757 -11.487  57.824  1.00  0.00     0.100 A 
HETATM    7  C   UNL     1      26.044 -10.130  57.788  1.00  0.00     0.039 A 
HETATM    8  C   UNL     1      25.317  -9.135  56.918  1.00  0.00     0.071 C 
ENDROOT
BRANCH   1   9
HETATM    9  C   UNL     1      26.211 -13.756  58.697  1.00  0.00     0.102 C 
BRANCH   9  10
HETATM   10  N   UNL     1      26.768 -14.554  57.813  1.00  0.00    -0.378 N 
ATOM     11  HN  UNL     1      27.734 -14.368  57.546  1.00  0.00     0.164 HD
BRANCH  10  12
HETATM   12  C   UNL     1      26.089 -15.694  57.187  1.00  0.00     0.061 C 
BRANCH  12  13
HETATM   13  C   UNL     1      25.133 -15.523  56.016  1.00  0.00     0.054 C 
BRANCH  13  14
HETATM   14  C   UNL     1      23.716 -15.148  56.352  1.00  0.00     0.078 C 
BRANCH  14  15
HETATM   15  S   UNL     1      22.769 -16.688  55.982  1.00  0.00    -0.173 SA
HETATM   16  C   UNL     1      21.698 -16.872  57.398  1.00  0.00     0.089 C 
ENDBRANCH  14  15
ENDBRANCH  13  14
ENDBRANCH  12  13
ENDBRANCH  10  12
ENDBRANCH   9  10
ENDBRANCH   1   9
BRANCH   2  17
HETATM   17  C   UNL     1      28.466 -12.608  60.338  1.00  0.00     0.223 C 
BRANCH  17  18
HETATM   18  O   UNL     1      27.684 -13.027  61.436  1.00  0.00    -0.278 OA
BRANCH  18  19
HETATM   19  P   UNL     1      27.672 -12.086  62.766  1.00  0.00     0.422 P 
HETATM   20  O   UNL     1      27.572 -13.044  63.878  1.00  0.00    -0.617 OA
HETATM   21  O   UNL     1      26.437 -11.248  62.662  1.00  0.00    -0.617 OA
HETATM   22  O   UNL     1      28.944 -11.422  62.606  1.00  0.00    -0.617 OA
ENDBRANCH  18  19
ENDBRANCH  17  18
ENDBRANCH   2  17
BRANCH   6  23
HETATM   23  O   UNL     1      24.722 -11.922  57.058  1.00  0.00    -0.358 OA
ATOM     24  HO  UNL     1      24.830 -12.626  56.430  1.00  0.00     0.217 HD
ENDBRANCH   6  23
TORSDOF 10
ENDMDL
MODEL 17
REMARK VINA RESULT:    -5.480     12.506     14.016
REMARK INTER + INTRA:          -9.406
REMARK INTER:                  -7.816
REMARK INTRA:                  -1.591
REMARK UNBOUND:                -0.882
REMARK  10 active torsions:
REMARK  status: ('A' for Active; 'I' for Inactive)
REMARK    1  A    between atoms: C_1  and  C_17 
REMARK    2  A    between atoms: C_2  and  C_12 
REMARK    3  A    between atoms: C_6  and  O_15 
REMARK    4  A    between atoms: P_8  and  O_11 
REMARK    5  A    between atoms: O_11  and  C_12 
REMARK    6  A    between atoms: C_17  and  N_18 
REMARK    7  A    between atoms: N_18  and  C_20 
REMARK    8  A    between atoms: C_20  and  C_21 
REMARK    9  A    between atoms: C_21  and  C_22 
REMARK   10  A    between atoms: C_22  and  S_23 
ROOT
HETATM    1  C   UNL     1      18.485 -14.411  65.944  1.00  0.00     0.024 A 
HETATM    2  C   UNL     1      18.444 -15.621  65.213  1.00  0.00    -0.004 A 
HETATM    3  C   UNL     1      17.766 -15.682  63.992  1.00  0.00     0.098 A 
HETATM    4  N   UNL     1      17.155 -14.599  63.485  1.00  0.00    -0.367 N 
ATOM      5  HN  UNL     1      16.672 -14.672  62.589  1.00  0.00     0.165 HD
HETATM    6  C   UNL     1      17.801 -13.300  65.370  1.00  0.00     0.100 A 
HETATM    7  C   UNL     1      17.167 -13.403  64.140  1.00  0.00     0.039 A 
HETATM    8  C   UNL     1      16.418 -12.273  63.478  1.00  0.00     0.071 C 
ENDROOT
BRANCH   1   9
HETATM    9  C   UNL     1      19.122 -14.318  67.197  1.00  0.00     0.102 C 
BRANCH   9  10
HETATM   10  N   UNL     1      18.406 -14.092  68.275  1.00  0.00    -0.378 N 
ATOM     11  HN  UNL     1      18.497 -13.181  68.726  1.00  0.00     0.164 HD
BRANCH  10  12
HETATM   12  C   UNL     1      17.484 -15.064  68.873  1.00  0.00     0.061 C 
BRANCH  12  13
HETATM   13  C   UNL     1      16.041 -15.201  68.412  1.00  0.00     0.054 C 
BRANCH  13  14
HETATM   14  C   UNL     1      15.246 -13.930  68.296  1.00  0.00     0.078 C 
BRANCH  14  15
HETATM   15  S   UNL     1      14.437 -14.083  66.644  1.00  0.00    -0.173 SA
HETATM   16  C   UNL     1      14.778 -15.769  66.165  1.00  0.00     0.089 C 
ENDBRANCH  14  15
ENDBRANCH  13  14
ENDBRANCH  12  13
ENDBRANCH  10  12
ENDBRANCH   9  10
ENDBRANCH   1   9
BRANCH   2  17
HETATM   17  C   UNL     1      19.077 -16.931  65.692  1.00  0.00     0.223 C 
BRANCH  17  18
HETATM   18  O   UNL     1      18.097 -17.598  66.459  1.00  0.00    -0.278 OA
BRANCH  18  19
HETATM   19  P   UNL     1      17.814 -19.169  66.136  1.00  0.00     0.422 P 
HETATM   20  O   UNL     1      18.202 -19.862  67.373  1.00  0.00    -0.617 OA
HETATM   21  O   UNL     1      18.728 -19.525  65.007  1.00  0.00    -0.617 OA
HETATM   22  O   UNL     1      16.399 -19.108  65.854  1.00  0.00    -0.617 OA
ENDBRANCH  18  19
ENDBRANCH  17  18
ENDBRANCH   2  17
BRANCH   6  23
HETATM   23  O   UNL     1      17.779 -12.087  65.979  1.00  0.00    -0.358 OA
ATOM     24  HO  UNL     1      18.228 -11.336  65.609  1.00  0.00     0.217 HD
ENDBRANCH   6  23
TORSDOF 10
ENDMDL
MODEL 18
REMARK VINA RESULT:    -5.435     11.857     13.446
REMARK INTER + INTRA:          -9.335
REMARK INTER:                  -8.307
REMARK INTRA:                  -1.028
REMARK UNBOUND:                -0.882
REMARK  10 active torsions:
REMARK  status: ('A' for Active; 'I' for Inactive)
REMARK    1  A    between atoms: C_1  and  C_17 
REMARK    2  A    between atoms: C_2  and  C_12 
REMARK    3  A    between atoms: C_6  and  O_15 
REMARK    4  A    between atoms: P_8  and  O_11 
REMARK    5  A    between atoms: O_11  and  C_12 
REMARK    6  A    between atoms: C_17  and  N_18 
REMARK    7  A    between atoms: N_18  and  C_20 
REMARK    8  A    between atoms: C_20  and  C_21 
REMARK    9  A    between atoms: C_21  and  C_22 
REMARK   10  A    between atoms: C_22  and  S_23 
ROOT
HETATM    1  C   UNL     1      18.831 -15.871  66.312  1.00  0.00     0.024 A 
HETATM    2  C   UNL     1      18.679 -16.390  65.005  1.00  0.00    -0.004 A 
HETATM    3  C   UNL     1      18.412 -15.532  63.934  1.00  0.00     0.098 A 
HETATM    4  N   UNL     1      18.309 -14.205  64.120  1.00  0.00    -0.367 N 
ATOM      5  HN  UNL     1      18.119 -13.602  63.319  1.00  0.00     0.165 HD
HETATM    6  C   UNL     1      18.689 -14.460  66.454  1.00  0.00     0.100 A 
HETATM    7  C   UNL     1      18.454 -13.646  65.355  1.00  0.00     0.039 A 
HETATM    8  C   UNL     1      18.285 -12.149  65.434  1.00  0.00     0.071 C 
ENDROOT
BRANCH   1   9
HETATM    9  C   UNL     1      19.059 -16.705  67.423  1.00  0.00     0.102 C 
BRANCH   9  10
HETATM   10  N   UNL     1      18.322 -16.567  68.502  1.00  0.00    -0.378 N 
ATOM     11  HN  UNL     1      18.720 -16.052  69.288  1.00  0.00     0.164 HD
BRANCH  10  12
HETATM   12  C   UNL     1      16.965 -17.104  68.651  1.00  0.00     0.061 C 
BRANCH  12  13
HETATM   13  C   UNL     1      16.628 -18.552  68.329  1.00  0.00     0.054 C 
BRANCH  13  14
HETATM   14  C   UNL     1      17.541 -19.601  68.901  1.00  0.00     0.078 C 
BRANCH  14  15
HETATM   15  S   UNL     1      17.735 -20.800  67.511  1.00  0.00    -0.173 SA
HETATM   16  C   UNL     1      16.911 -22.267  68.105  1.00  0.00     0.089 C 
ENDBRANCH  14  15
ENDBRANCH  13  14
ENDBRANCH  12  13
ENDBRANCH  10  12
ENDBRANCH   9  10
ENDBRANCH   1   9
BRANCH   2  17
HETATM   17  C   UNL     1      18.747 -17.882  64.663  1.00  0.00     0.223 C 
BRANCH  17  18
HETATM   18  O   UNL     1      19.474 -17.988  63.458  1.00  0.00    -0.278 OA
BRANCH  18  19
HETATM   19  P   UNL     1      20.921 -18.736  63.504  1.00  0.00     0.422 P 
HETATM   20  O   UNL     1      21.817 -17.739  64.108  1.00  0.00    -0.617 OA
HETATM   21  O   UNL     1      21.289 -19.002  62.079  1.00  0.00    -0.617 OA
HETATM   22  O   UNL     1      20.581 -19.872  64.328  1.00  0.00    -0.617 OA
ENDBRANCH  18  19
ENDBRANCH  17  18
ENDBRANCH   2  17
BRANCH   6  23
HETATM   23  O   UNL     1      18.821 -13.850  67.660  1.00  0.00    -0.358 OA
ATOM     24  HO  UNL     1      18.584 -14.290  68.469  1.00  0.00     0.217 HD
ENDBRANCH   6  23
TORSDOF 10
ENDMDL
MODEL 19
REMARK VINA RESULT:    -5.428     13.558     15.286
REMARK INTER + INTRA:          -9.324
REMARK INTER:                  -8.182
REMARK INTRA:                  -1.142
REMARK UNBOUND:                -0.882
REMARK  10 active torsions:
REMARK  status: ('A' for Active; 'I' for Inactive)
REMARK    1  A    between atoms: C_1  and  C_17 
REMARK    2  A    between atoms: C_2  and  C_12 
REMARK    3  A    between atoms: C_6  and  O_15 
REMARK    4  A    between atoms: P_8  and  O_11 
REMARK    5  A    between atoms: O_11  and  C_12 
REMARK    6  A    between atoms: C_17  and  N_18 
REMARK    7  A    between atoms: N_18  and  C_20 
REMARK    8  A    between atoms: C_20  and  C_21 
REMARK    9  A    between atoms: C_21  and  C_22 
REMARK   10  A    between atoms: C_22  and  S_23 
ROOT
HETATM    1  C   UNL     1      18.477 -16.534  67.376  1.00  0.00     0.024 A 
HETATM    2  C   UNL     1      17.959 -17.212  66.248  1.00  0.00    -0.004 A 
HETATM    3  C   UNL     1      17.777 -16.533  65.040  1.00  0.00     0.098 A 
HETATM    4  N   UNL     1      18.100 -15.234  64.922  1.00  0.00    -0.367 N 
ATOM      5  HN  UNL     1      17.961 -14.764  64.027  1.00  0.00     0.165 HD
HETATM    6  C   UNL     1      18.780 -15.152  67.200  1.00  0.00     0.100 A 
HETATM    7  C   UNL     1      18.610 -14.529  65.972  1.00  0.00     0.039 A 
HETATM    8  C   UNL     1      18.901 -13.070  65.717  1.00  0.00     0.071 C 
ENDROOT
BRANCH   1   9
HETATM    9  C   UNL     1      18.637 -17.171  68.621  1.00  0.00     0.102 C 
BRANCH   9  10
HETATM   10  N   UNL     1      17.909 -16.789  69.646  1.00  0.00    -0.378 N 
ATOM     11  HN  UNL     1      18.088 -15.865  70.039  1.00  0.00     0.164 HD
BRANCH  10  12
HETATM   12  C   UNL     1      16.856 -17.604  70.261  1.00  0.00     0.061 C 
BRANCH  12  13
HETATM   13  C   UNL     1      15.502 -17.810  69.601  1.00  0.00     0.054 C 
BRANCH  13  14
HETATM   14  C   UNL     1      15.206 -19.191  69.084  1.00  0.00     0.078 C 
BRANCH  14  15
HETATM   15  S   UNL     1      16.435 -20.248  69.966  1.00  0.00    -0.173 SA
HETATM   16  C   UNL     1      15.736 -21.887  69.854  1.00  0.00     0.089 C 
ENDBRANCH  14  15
ENDBRANCH  13  14
ENDBRANCH  12  13
ENDBRANCH  10  12
ENDBRANCH   9  10
ENDBRANCH   1   9
BRANCH   2  17
HETATM   17  C   UNL     1      17.530 -18.683  66.257  1.00  0.00     0.223 C 
BRANCH  17  18
HETATM   18  O   UNL     1      18.532 -19.402  65.571  1.00  0.00    -0.278 OA
BRANCH  18  19
HETATM   19  P   UNL     1      18.420 -21.028  65.543  1.00  0.00     0.422 P 
HETATM   20  O   UNL     1      17.411 -21.296  64.508  1.00  0.00    -0.617 OA
HETATM   21  O   UNL     1      17.925 -21.426  66.897  1.00  0.00    -0.617 OA
HETATM   22  O   UNL     1      19.784 -21.360  65.207  1.00  0.00    -0.617 OA
ENDBRANCH  18  19
ENDBRANCH  17  18
ENDBRANCH   2  17
BRANCH   6  23
HETATM   23  O   UNL     1      19.289 -14.402  68.211  1.00  0.00    -0.358 OA
ATOM     24  HO  UNL     1      18.726 -13.903  68.792  1.00  0.00     0.217 HD
ENDBRANCH   6  23
TORSDOF 10
ENDMDL
MODEL 20
REMARK VINA RESULT:    -5.386     12.398     13.746
REMARK INTER + INTRA:          -9.259
REMARK INTER:                  -8.211
REMARK INTRA:                  -1.048
REMARK UNBOUND:                -0.882
REMARK  10 active torsions:
REMARK  status: ('A' for Active; 'I' for Inactive)
REMARK    1  A    between atoms: C_1  and  C_17 
REMARK    2  A    between atoms: C_2  and  C_12 
REMARK    3  A    between atoms: C_6  and  O_15 
REMARK    4  A    between atoms: P_8  and  O_11 
REMARK    5  A    between atoms: O_11  and  C_12 
REMARK    6  A    between atoms: C_17  and  N_18 
REMARK    7  A    between atoms: N_18  and  C_20 
REMARK    8  A    between atoms: C_20  and  C_21 
REMARK    9  A    between atoms: C_21  and  C_22 
REMARK   10  A    between atoms: C_22  and  S_23 
ROOT
HETATM    1  C   UNL     1      17.674 -17.406  65.159  1.00  0.00     0.024 A 
HETATM    2  C   UNL     1      17.583 -16.098  64.630  1.00  0.00    -0.004 A 
HETATM    3  C   UNL     1      18.564 -15.622  63.757  1.00  0.00     0.098 A 
HETATM    4  N   UNL     1      19.601 -16.395  63.393  1.00  0.00    -0.367 N 
ATOM      5  HN  UNL     1      20.300 -16.023  62.749  1.00  0.00     0.165 HD
HETATM    6  C   UNL     1      18.806 -18.174  64.757  1.00  0.00     0.100 A 
HETATM    7  C   UNL     1      19.739 -17.668  63.864  1.00  0.00     0.039 A 
HETATM    8  C   UNL     1      20.963 -18.420  63.403  1.00  0.00     0.071 C 
ENDROOT
BRANCH   1   9
HETATM    9  C   UNL     1      16.729 -17.909  66.074  1.00  0.00     0.102 C 
BRANCH   9  10
HETATM   10  N   UNL     1      15.895 -18.851  65.695  1.00  0.00    -0.378 N 
ATOM     11  HN  UNL     1      15.285 -18.656  64.901  1.00  0.00     0.164 HD
BRANCH  10  12
HETATM   12  C   UNL     1      15.784 -20.164  66.340  1.00  0.00     0.061 C 
BRANCH  12  13
HETATM   13  C   UNL     1      16.586 -20.527  67.580  1.00  0.00     0.054 C 
BRANCH  13  14
HETATM   14  C   UNL     1      17.155 -21.918  67.632  1.00  0.00     0.078 C 
BRANCH  14  15
HETATM   15  S   UNL     1      16.393 -22.745  66.168  1.00  0.00    -0.173 SA
HETATM   16  C   UNL     1      17.773 -22.997  65.063  1.00  0.00     0.089 C 
ENDBRANCH  14  15
ENDBRANCH  13  14
ENDBRANCH  12  13
ENDBRANCH  10  12
ENDBRANCH   9  10
ENDBRANCH   1   9
BRANCH   2  17
HETATM   17  C   UNL     1      16.467 -15.108  64.984  1.00  0.00     0.223 C 
BRANCH  17  18
HETATM   18  O   UNL     1      15.533 -15.156  63.927  1.00  0.00    -0.278 OA
BRANCH  18  19
HETATM   19  P   UNL     1      15.085 -13.747  63.242  1.00  0.00     0.422 P 
HETATM   20  O   UNL     1      14.391 -14.155  62.012  1.00  0.00    -0.617 OA
HETATM   21  O   UNL     1      16.355 -13.021  62.932  1.00  0.00    -0.617 OA
HETATM   22  O   UNL     1      14.255 -13.217  64.298  1.00  0.00    -0.617 OA
ENDBRANCH  18  19
ENDBRANCH  17  18
ENDBRANCH   2  17
BRANCH   6  23
HETATM   23  O   UNL     1      18.995 -19.445  65.196  1.00  0.00    -0.358 OA
ATOM     24  HO  UNL     1      18.809 -20.195  64.643  1.00  0.00     0.217 HD
ENDBRANCH   6  23
TORSDOF 10
ENDMDL
