MODEL 1
REMARK VINA RESULT:   -13.644      0.000      0.000
REMARK INTER + INTRA:         -20.106
REMARK INTER:                 -19.228
REMARK INTRA:                  -0.879
REMARK UNBOUND:                -0.879
REMARK  7 active torsions:
REMARK  status: ('A' for Active; 'I' for Inactive)
REMARK    1  A    between atoms: C_2  and  C_3 
REMARK    2  A    between atoms: C_6  and  C_14 
REMARK    3  A    between atoms: C_10  and  C_11 
REMARK    4  A    between atoms: C_17  and  O_33 
REMARK    5  A    between atoms: C_18  and  C_19 
REMARK    6  A    between atoms: C_18  and  O_33 
REMARK    7  A    between atoms: C_20  and  C_21 
ROOT
HETATM    1  C   UNL     1      -1.374  45.408  12.233  1.00  0.00     0.122 A 
HETATM    2  C   UNL     1      -1.830  44.466  13.144  1.00  0.00     0.032 A 
HETATM    3  C   UNL     1      -3.198  44.313  12.917  1.00  0.00     0.079 A 
HETATM    4  N   UNL     1      -3.575  45.083  11.920  1.00  0.00    -0.259 N 
ATOM      5  HN  UNL     1      -4.516  45.155  11.533  1.00  0.00     0.195 HD
HETATM    6  O   UNL     1      -2.432  45.792  11.483  1.00  0.00    -0.236 OA
ENDROOT
BRANCH   2   7
HETATM    7  C   UNL     1      -1.029  43.730  14.164  1.00  0.00     0.220 C 
BRANCH   7   8
HETATM    8  O   UNL     1      -0.521  44.612  15.190  1.00  0.00    -0.347 OA
BRANCH   8   9
HETATM    9  C   UNL     1       0.324  44.080  16.137  1.00  0.00     0.069 A 
HETATM   10  C   UNL     1       0.249  42.774  16.607  1.00  0.00     0.038 A 
HETATM   11  C   UNL     1       1.146  42.345  17.573  1.00  0.00     0.021 A 
HETATM   12  C   UNL     1       2.118  43.203  18.079  1.00  0.00     0.041 A 
HETATM   13  C   UNL     1       2.173  44.506  17.602  1.00  0.00     0.021 A 
HETATM   14  C   UNL     1       1.289  44.942  16.634  1.00  0.00     0.038 A 
BRANCH  12  15
HETATM   15  C   UNL     1       3.092  42.745  19.140  1.00  0.00     0.209 C 
HETATM   16  O   UNL     1       3.571  41.591  19.051  1.00  0.00    -0.644 OA
HETATM   17  O   UNL     1       3.301  43.517  20.092  1.00  0.00    -0.644 OA
ENDBRANCH  12  15
ENDBRANCH   8   9
ENDBRANCH   7   8
ENDBRANCH   2   7
BRANCH   1  18
HETATM   18  C   UNL     1      -0.081  46.033  11.962  1.00  0.00     0.034 A 
HETATM   19  C   UNL     1       0.248  46.895  10.903  1.00  0.00     0.122 A 
HETATM   20  N   UNL     1       1.511  47.282  11.009  1.00  0.00    -0.311 N 
HETATM   21  N   UNL     1       2.001  46.679  12.113  1.00  0.00    -0.311 N 
ATOM     22  HN  UNL     1       2.013  47.910  10.381  1.00  0.00     0.186 HD
HETATM   23  C   UNL     1       1.073  45.925  12.708  1.00  0.00     0.122 A 
ATOM     24  HN  UNL     1       2.958  46.787  12.449  1.00  0.00     0.186 HD
ENDBRANCH   1  18
BRANCH   3  25
HETATM   25  C   UNL     1      -4.187  43.419  13.552  1.00  0.00     0.030 A 
HETATM   26  C   UNL     1      -5.158  43.934  14.432  1.00  0.00     0.062 A 
HETATM   27  C   UNL     1      -6.064  43.047  15.010  1.00  0.00     0.017 A 
HETATM   28  C   UNL     1      -6.009  41.690  14.756  1.00  0.00     0.003 A 
HETATM   29  C   UNL     1      -5.052  41.179  13.919  1.00  0.00     0.025 A 
HETATM   30  C   UNL     1      -4.141  42.047  13.331  1.00  0.00     0.047 A 
HETATM   31 CL   UNL     1      -2.953  41.399  12.267  1.00  0.00    -0.083 Cl
BRANCH  26  32
HETATM   32  C   UNL     1      -5.273  45.392  14.753  1.00  0.00     0.418 C 
HETATM   33  F   UNL     1      -5.661  46.129  13.718  1.00  0.00    -0.166 F 
HETATM   34  F   UNL     1      -4.135  45.941  15.189  1.00  0.00    -0.166 F 
HETATM   35  F   UNL     1      -6.165  45.606  15.710  1.00  0.00    -0.166 F 
ENDBRANCH  26  32
ENDBRANCH   3  25
TORSDOF 7
ENDMDL
MODEL 2
REMARK VINA RESULT:   -13.063      2.055      2.585
REMARK INTER + INTRA:         -19.288
REMARK INTER:                 -17.931
REMARK INTRA:                  -1.357
REMARK UNBOUND:                -0.879
REMARK  7 active torsions:
REMARK  status: ('A' for Active; 'I' for Inactive)
REMARK    1  A    between atoms: C_2  and  C_3 
REMARK    2  A    between atoms: C_6  and  C_14 
REMARK    3  A    between atoms: C_10  and  C_11 
REMARK    4  A    between atoms: C_17  and  O_33 
REMARK    5  A    between atoms: C_18  and  C_19 
REMARK    6  A    between atoms: C_18  and  O_33 
REMARK    7  A    between atoms: C_20  and  C_21 
ROOT
HETATM    1  C   UNL     1      -1.398  45.383  12.429  1.00  0.00     0.122 A 
HETATM    2  C   UNL     1      -1.982  44.784  13.536  1.00  0.00     0.032 A 
HETATM    3  C   UNL     1      -3.271  44.404  13.158  1.00  0.00     0.079 A 
HETATM    4  N   UNL     1      -3.477  44.717  11.898  1.00  0.00    -0.259 N 
ATOM      5  HN  UNL     1      -4.326  44.538  11.361  1.00  0.00     0.195 HD
HETATM    6  O   UNL     1      -2.304  45.350  11.425  1.00  0.00    -0.236 OA
ENDROOT
BRANCH   2   7
HETATM    7  C   UNL     1      -1.366  44.558  14.875  1.00  0.00     0.220 C 
BRANCH   7   8
HETATM    8  O   UNL     1      -0.407  43.478  14.852  1.00  0.00    -0.347 OA
BRANCH   8   9
HETATM    9  C   UNL     1       0.467  43.369  15.910  1.00  0.00     0.069 A 
HETATM   10  C   UNL     1       1.017  44.453  16.584  1.00  0.00     0.038 A 
HETATM   11  C   UNL     1       1.899  44.228  17.629  1.00  0.00     0.021 A 
HETATM   12  C   UNL     1       2.243  42.934  18.012  1.00  0.00     0.041 A 
HETATM   13  C   UNL     1       1.688  41.864  17.322  1.00  0.00     0.021 A 
HETATM   14  C   UNL     1       0.802  42.077  16.282  1.00  0.00     0.038 A 
BRANCH  12  15
HETATM   15  C   UNL     1       3.211  42.682  19.143  1.00  0.00     0.209 C 
HETATM   16  O   UNL     1       3.897  41.634  19.119  1.00  0.00    -0.644 OA
HETATM   17  O   UNL     1       3.213  43.498  20.083  1.00  0.00    -0.644 OA
ENDBRANCH  12  15
ENDBRANCH   8   9
ENDBRANCH   7   8
ENDBRANCH   2   7
BRANCH   1  18
HETATM   18  C   UNL     1      -0.107  46.014  12.165  1.00  0.00     0.034 A 
HETATM   19  C   UNL     1       0.203  46.939  11.153  1.00  0.00     0.122 A 
HETATM   20  N   UNL     1       1.472  47.308  11.251  1.00  0.00    -0.311 N 
HETATM   21  N   UNL     1       1.984  46.633  12.301  1.00  0.00    -0.311 N 
ATOM     22  HN  UNL     1       1.963  47.971  10.651  1.00  0.00     0.186 HD
HETATM   23  C   UNL     1       1.065  45.850  12.872  1.00  0.00     0.122 A 
ATOM     24  HN  UNL     1       2.951  46.712  12.619  1.00  0.00     0.186 HD
ENDBRANCH   1  18
BRANCH   3  25
HETATM   25  C   UNL     1      -4.324  43.689  13.906  1.00  0.00     0.030 A 
HETATM   26  C   UNL     1      -4.400  42.284  13.869  1.00  0.00     0.062 A 
HETATM   27  C   UNL     1      -5.417  41.658  14.586  1.00  0.00     0.017 A 
HETATM   28  C   UNL     1      -6.350  42.384  15.303  1.00  0.00     0.003 A 
HETATM   29  C   UNL     1      -6.296  43.754  15.323  1.00  0.00     0.025 A 
HETATM   30  C   UNL     1      -5.288  44.396  14.615  1.00  0.00     0.047 A 
HETATM   31 CL   UNL     1      -5.216  46.116  14.663  1.00  0.00    -0.083 Cl
BRANCH  26  32
HETATM   32  C   UNL     1      -3.426  41.436  13.113  1.00  0.00     0.418 C 
HETATM   33  F   UNL     1      -2.193  41.483  13.608  1.00  0.00    -0.166 F 
HETATM   34  F   UNL     1      -3.315  41.760  11.821  1.00  0.00    -0.166 F 
HETATM   35  F   UNL     1      -3.779  40.159  13.134  1.00  0.00    -0.166 F 
ENDBRANCH  26  32
ENDBRANCH   3  25
TORSDOF 7
ENDMDL
