REMARK  7 active torsions:
REMARK  status: ('A' for Active; 'I' for Inactive)
REMARK    1  A    between atoms: P_2  and  O_5 
REMARK    2  A    between atoms: O_5  and  C_6 
REMARK    3  A    between atoms: C_6  and  C_7 
REMARK    4  A    between atoms: C_9  and  O_10 
REMARK    5  A    between atoms: C_12  and  O_13 
REMARK    6  A    between atoms: C_15  and  N_16 
REMARK    7  A    between atoms: C_21  and  N_22 
ROOT
HETATM    1  C   UNL     1      10.117  15.419  37.388  1.00  0.00     0.180 C 
HETATM    2  O   UNL     1      10.823  14.767  36.313  1.00  0.00    -0.353 OA
HETATM    3  C   UNL     1      11.257  15.977  38.222  1.00  0.00     0.182 C 
HETATM    4  C   UNL     1      12.262  14.819  38.211  1.00  0.00     0.198 C 
HETATM    5  C   UNL     1      12.038  14.236  36.809  1.00  0.00     0.263 C 
ENDROOT
BRANCH   5   6
HETATM    6  N   UNL     1      13.117  14.491  35.848  1.00  0.00    -0.280 N 
HETATM    7  C   UNL     1      13.140  15.631  35.086  1.00  0.00     0.102 A 
HETATM    8  C   UNL     1      14.124  15.846  34.204  1.00  0.00     0.065 A 
HETATM    9  C   UNL     1      15.173  14.872  34.136  1.00  0.00     0.103 A 
HETATM   10  N   UNL     1      15.151  13.761  34.868  1.00  0.00    -0.295 N 
HETATM   11  C   UNL     1      14.167  13.559  35.759  1.00  0.00     0.330 A 
ATOM     12  HN  UNL     1      15.884  13.061  34.752  1.00  0.00     0.172 HD
HETATM   13  O   UNL     1      14.142  12.547  36.471  1.00  0.00    -0.246 OA
BRANCH   9  14
HETATM   14  N   UNL     1      16.162  15.008  33.264  1.00  0.00    -0.385 N 
ATOM     15  HN2 UNL     1      16.179  15.860  32.703  1.00  0.00     0.157 HD
ATOM     16  HN1 UNL     1      16.909  14.315  33.216  1.00  0.00     0.157 HD
ENDBRANCH   9  14
ENDBRANCH   5   6
BRANCH   4  17
HETATM   17  O   UNL     1      11.937  13.860  39.197  1.00  0.00    -0.388 OA
ATOM     18  HO  UNL     1      12.560  13.143  39.190  1.00  0.00     0.210 HD
ENDBRANCH   4  17
BRANCH   1  19
HETATM   19  C   UNL     1       9.150  16.430  36.823  1.00  0.00     0.217 C 
BRANCH  19  20
HETATM   20  O   UNL     1       8.086  15.722  36.188  1.00  0.00    -0.280 OA
BRANCH  20  21
HETATM   21  P   UNL     1       6.577  16.292  36.194  1.00  0.00     0.422 P 
HETATM   22  O   UNL     1       6.674  17.600  35.418  1.00  0.00    -0.617 OA
HETATM   23  O   UNL     1       6.107  16.439  37.635  1.00  0.00    -0.617 OA
HETATM   24  O   UNL     1       5.876  15.167  35.484  1.00  0.00    -0.617 OA
ENDBRANCH  20  21
ENDBRANCH  19  20
ENDBRANCH   1  19
BRANCH   3  25
HETATM   25  O   UNL     1      10.813  16.355  39.526  1.00  0.00    -0.390 OA
ATOM     26  HO  UNL     1      11.526  16.704  40.048  1.00  0.00     0.210 HD
ENDBRANCH   3  25
TORSDOF 7
