REMARK  2 active torsions:
REMARK  status: ('A' for Active; 'I' for Inactive)
REMARK    1  A    between atoms: C_5  and  O_7 
REMARK    2  A    between atoms: O_7  and  P_8 
ROOT
HETATM    1  C   UNL     1      11.844   7.026   0.552  1.00  0.00     0.003 A 
HETATM    2  C   UNL     1      12.755   6.030   0.905  1.00  0.00     0.000 A 
HETATM    3  C   UNL     1      14.129   6.201   0.719  1.00  0.00     0.003 A 
HETATM    4  C   UNL     1      14.595   7.385   0.178  1.00  0.00     0.037 A 
HETATM    5  C   UNL     1      13.687   8.382  -0.179  1.00  0.00     0.082 A 
HETATM    6  C   UNL     1      12.318   8.208   0.007  1.00  0.00     0.037 A 
ENDROOT
BRANCH   5   7
HETATM    7  O   UNL     1      14.092   9.616  -0.750  1.00  0.00    -0.240 OA
BRANCH   7   8
HETATM    8  P   UNL     1      15.530  10.262  -0.711  1.00  0.00     0.427 P 
HETATM    9  O   UNL     1      15.316  11.468  -1.581  1.00  0.00    -0.617 OA
HETATM   10  O   UNL     1      15.923  10.700   0.658  1.00  0.00    -0.617 OA
HETATM   11  O   UNL     1      16.551   9.352  -1.312  1.00  0.00    -0.617 OA
ENDBRANCH   7   8
ENDBRANCH   5   7
TORSDOF 2
