MODEL 1
REMARK VINA RESULT:    -9.583      0.000      0.000
REMARK INTER + INTRA:         -11.978
REMARK INTER:                 -11.824
REMARK INTRA:                  -0.154
REMARK UNBOUND:                -0.154
REMARK  4 active torsions:
REMARK  status: ('A' for Active; 'I' for Inactive)
REMARK    1  A    between atoms: O_3  and  C_25 
REMARK    2  A    between atoms: O_5  and  C_6 
REMARK    3  A    between atoms: C_8  and  O_9 
REMARK    4  A    between atoms: C_22  and  O_23 
ROOT
HETATM    1  C   UNL     1      -8.018 -10.126  10.853  1.00  0.00    -0.002 A 
HETATM    2  C   UNL     1      -7.060  -8.557  12.446  1.00  0.00     0.011 A 
HETATM    3  C   UNL     1      -7.868 -14.452  15.818  1.00  0.00     0.102 C 
HETATM    4  C   UNL     1      -8.258 -13.382  15.055  1.00  0.00     0.053 C 
HETATM    5  C   UNL     1      -6.888 -15.377  15.453  1.00  0.00     0.102 C 
HETATM    6  C   UNL     1      -6.307 -15.294  14.127  1.00  0.00     0.047 C 
HETATM    7  C   UNL     1      -6.757 -14.263  13.357  1.00  0.00    -0.042 C 
HETATM    8  C   UNL     1      -6.173 -14.195  11.939  1.00  0.00     0.054 C 
HETATM    9  C   UNL     1      -6.549 -12.902  11.174  1.00  0.00     0.100 C 
HETATM   10  N   UNL     1      -8.039 -12.581  11.377  1.00  0.00    -0.281 NA
HETATM   11  C   UNL     1      -8.635 -11.487  10.603  1.00  0.00     0.137 C 
HETATM   12  C   UNL     1      -8.058 -12.194  12.796  1.00  0.00     0.003 C 
HETATM   13  C   UNL     1      -7.734 -13.298  13.701  1.00  0.00    -0.009 C 
HETATM   14  C   UNL     1      -7.554 -10.868  13.281  1.00  0.00     0.091 C 
HETATM   15  C   UNL     1      -7.579  -9.840  12.184  1.00  0.00    -0.043 A 
HETATM   16  C   UNL     1      -7.017  -7.574  11.478  1.00  0.00     0.040 A 
HETATM   17  C   UNL     1      -7.508  -7.870  10.186  1.00  0.00     0.102 A 
HETATM   18  C   UNL     1      -8.062  -9.171   9.925  1.00  0.00     0.109 A 
ENDROOT
BRANCH   3  19
HETATM   19  O   UNL     1      -8.273 -14.517  17.148  1.00  0.00    -0.353 OA
HETATM   20  C   UNL     1      -9.427 -13.785  17.474  1.00  0.00     0.210 C 
ENDBRANCH   3  19
BRANCH   5  21
HETATM   21  O   UNL     1      -6.540 -16.389  16.323  1.00  0.00    -0.353 OA
HETATM   22  C   UNL     1      -6.779 -17.755  15.931  1.00  0.00     0.210 C 
ENDBRANCH   5  21
BRANCH  18  23
HETATM   23  O   UNL     1      -8.573  -9.477   8.671  1.00  0.00    -0.352 OA
HETATM   24  C   UNL     1      -7.680  -9.882   7.643  1.00  0.00     0.210 C 
ENDBRANCH  18  23
BRANCH  17  25
HETATM   25  O   UNL     1      -7.478  -6.945   9.128  1.00  0.00    -0.353 OA
HETATM   26  C   UNL     1      -7.517  -5.500   9.406  1.00  0.00     0.210 C 
ENDBRANCH  17  25
TORSDOF 4
ENDMDL
MODEL 2
REMARK VINA RESULT:    -9.437      1.015      8.206
REMARK INTER + INTRA:         -11.798
REMARK INTER:                 -11.656
REMARK INTRA:                  -0.142
REMARK UNBOUND:                -0.154
REMARK  4 active torsions:
REMARK  status: ('A' for Active; 'I' for Inactive)
REMARK    1  A    between atoms: O_3  and  C_25 
REMARK    2  A    between atoms: O_5  and  C_6 
REMARK    3  A    between atoms: C_8  and  O_9 
REMARK    4  A    between atoms: C_22  and  O_23 
ROOT
HETATM    1  C   UNL     1      -8.229 -13.516  14.096  1.00  0.00    -0.002 A 
HETATM    2  C   UNL     1      -6.221 -14.449  13.089  1.00  0.00     0.011 A 
HETATM    3  C   UNL     1      -7.934  -9.034   9.279  1.00  0.00     0.102 C 
HETATM    4  C   UNL     1      -8.132 -10.237   9.908  1.00  0.00     0.053 C 
HETATM    5  C   UNL     1      -7.601  -7.842   9.923  1.00  0.00     0.102 C 
HETATM    6  C   UNL     1      -7.571  -7.815  11.374  1.00  0.00     0.047 C 
HETATM    7  C   UNL     1      -7.838  -9.005  11.984  1.00  0.00    -0.042 C 
HETATM    8  C   UNL     1      -7.846  -8.972  13.518  1.00  0.00     0.054 C 
HETATM    9  C   UNL     1      -7.946 -10.373  14.169  1.00  0.00     0.100 C 
HETATM   10  N   UNL     1      -9.004 -11.220  13.442  1.00  0.00    -0.281 NA
HETATM   11  C   UNL     1      -9.370 -12.524  14.004  1.00  0.00     0.137 C 
HETATM   12  C   UNL     1      -8.343 -11.456  12.149  1.00  0.00     0.003 C 
HETATM   13  C   UNL     1      -8.160 -10.235  11.362  1.00  0.00    -0.009 C 
HETATM   14  C   UNL     1      -7.223 -12.438  11.978  1.00  0.00     0.091 C 
HETATM   15  C   UNL     1      -7.254 -13.492  13.051  1.00  0.00    -0.043 A 
HETATM   16  C   UNL     1      -6.164 -15.424  14.065  1.00  0.00     0.040 A 
HETATM   17  C   UNL     1      -7.173 -15.456  15.054  1.00  0.00     0.102 A 
HETATM   18  C   UNL     1      -8.242 -14.495  15.001  1.00  0.00     0.109 A 
ENDROOT
BRANCH   3  19
HETATM   19  O   UNL     1      -7.806  -9.010   7.893  1.00  0.00    -0.353 OA
HETATM   20  C   UNL     1      -8.386 -10.089   7.205  1.00  0.00     0.210 C 
ENDBRANCH   3  19
BRANCH   5  21
HETATM   21  O   UNL     1      -7.376  -6.700   9.184  1.00  0.00    -0.353 OA
HETATM   22  C   UNL     1      -7.588  -5.417   9.805  1.00  0.00     0.210 C 
ENDBRANCH   5  21
BRANCH  18  23
HETATM   23  O   UNL     1      -9.257 -14.522  15.947  1.00  0.00    -0.352 OA
HETATM   24  C   UNL     1      -9.029 -13.934  17.219  1.00  0.00     0.210 C 
ENDBRANCH  18  23
BRANCH  17  25
HETATM   25  O   UNL     1      -7.182 -16.391  16.104  1.00  0.00    -0.353 OA
HETATM   26  C   UNL     1      -6.458 -17.665  15.968  1.00  0.00     0.210 C 
ENDBRANCH  17  25
TORSDOF 4
ENDMDL
MODEL 3
REMARK VINA RESULT:    -9.389      0.436      0.436
REMARK INTER + INTRA:         -11.739
REMARK INTER:                 -11.599
REMARK INTRA:                  -0.140
REMARK UNBOUND:                -0.154
REMARK  4 active torsions:
REMARK  status: ('A' for Active; 'I' for Inactive)
REMARK    1  A    between atoms: O_3  and  C_25 
REMARK    2  A    between atoms: O_5  and  C_6 
REMARK    3  A    between atoms: C_8  and  O_9 
REMARK    4  A    between atoms: C_22  and  O_23 
ROOT
HETATM    1  C   UNL     1      -8.075  -9.884  10.841  1.00  0.00    -0.002 A 
HETATM    2  C   UNL     1      -6.950  -8.344  12.352  1.00  0.00     0.011 A 
HETATM    3  C   UNL     1      -8.228 -13.994  15.987  1.00  0.00     0.102 C 
HETATM    4  C   UNL     1      -8.534 -12.925  15.183  1.00  0.00     0.053 C 
HETATM    5  C   UNL     1      -7.343 -15.019  15.649  1.00  0.00     0.102 C 
HETATM    6  C   UNL     1      -6.780 -15.044  14.312  1.00  0.00     0.047 C 
HETATM    7  C   UNL     1      -7.149 -14.010  13.504  1.00  0.00    -0.042 C 
HETATM    8  C   UNL     1      -6.587 -14.055  12.077  1.00  0.00     0.054 C 
HETATM    9  C   UNL     1      -6.857 -12.767  11.262  1.00  0.00     0.100 C 
HETATM   10  N   UNL     1      -8.309 -12.303  11.471  1.00  0.00    -0.281 NA
HETATM   11  C   UNL     1      -8.817 -11.193  10.660  1.00  0.00     0.137 C 
HETATM   12  C   UNL     1      -8.268 -11.856  12.872  1.00  0.00     0.003 C 
HETATM   13  C   UNL     1      -8.028 -12.946  13.820  1.00  0.00    -0.009 C 
HETATM   14  C   UNL     1      -7.637 -10.563  13.293  1.00  0.00     0.091 C 
HETATM   15  C   UNL     1      -7.588  -9.584  12.152  1.00  0.00    -0.043 A 
HETATM   16  C   UNL     1      -6.836  -7.410  11.341  1.00  0.00     0.040 A 
HETATM   17  C   UNL     1      -7.374  -7.714  10.070  1.00  0.00     0.102 A 
HETATM   18  C   UNL     1      -8.049  -8.969   9.873  1.00  0.00     0.109 A 
ENDROOT
BRANCH   3  19
HETATM   19  O   UNL     1      -8.614 -13.965  17.324  1.00  0.00    -0.353 OA
HETATM   20  C   UNL     1      -9.998 -13.957  17.563  1.00  0.00     0.210 C 
ENDBRANCH   3  19
BRANCH   5  21
HETATM   21  O   UNL     1      -7.072 -16.021  16.557  1.00  0.00    -0.353 OA
HETATM   22  C   UNL     1      -6.504 -17.256  16.079  1.00  0.00     0.210 C 
ENDBRANCH   5  21
BRANCH  18  23
HETATM   23  O   UNL     1      -8.607  -9.280   8.641  1.00  0.00    -0.352 OA
HETATM   24  C   UNL     1      -7.761  -9.736   7.596  1.00  0.00     0.210 C 
ENDBRANCH  18  23
BRANCH  17  25
HETATM   25  O   UNL     1      -7.279  -6.840   8.973  1.00  0.00    -0.353 OA
HETATM   26  C   UNL     1      -7.599  -5.413   9.133  1.00  0.00     0.210 C 
ENDBRANCH  17  25
TORSDOF 4
ENDMDL
MODEL 4
REMARK VINA RESULT:    -9.166      1.474      8.188
REMARK INTER + INTRA:         -11.464
REMARK INTER:                 -11.537
REMARK INTRA:                   0.073
REMARK UNBOUND:                -0.154
REMARK  4 active torsions:
REMARK  status: ('A' for Active; 'I' for Inactive)
REMARK    1  A    between atoms: O_3  and  C_25 
REMARK    2  A    between atoms: O_5  and  C_6 
REMARK    3  A    between atoms: C_8  and  O_9 
REMARK    4  A    between atoms: C_22  and  O_23 
ROOT
HETATM    1  C   UNL     1      -9.133 -13.124  15.003  1.00  0.00    -0.002 A 
HETATM    2  C   UNL     1      -7.003 -14.228  14.600  1.00  0.00     0.011 A 
HETATM    3  C   UNL     1      -7.678  -9.523   9.683  1.00  0.00     0.102 C 
HETATM    4  C   UNL     1      -8.049 -10.601  10.446  1.00  0.00     0.053 C 
HETATM    5  C   UNL     1      -7.433  -8.241  10.178  1.00  0.00     0.102 C 
HETATM    6  C   UNL     1      -7.697  -7.970  11.579  1.00  0.00     0.047 C 
HETATM    7  C   UNL     1      -8.132  -9.038  12.307  1.00  0.00    -0.042 C 
HETATM    8  C   UNL     1      -8.450  -8.746  13.779  1.00  0.00     0.054 C 
HETATM    9  C   UNL     1      -8.739 -10.016  14.617  1.00  0.00     0.100 C 
HETATM   10  N   UNL     1      -9.662 -10.966  13.835  1.00  0.00    -0.281 NA
HETATM   11  C   UNL     1     -10.189 -12.153  14.515  1.00  0.00     0.137 C 
HETATM   12  C   UNL     1      -8.762 -11.422  12.764  1.00  0.00     0.003 C 
HETATM   13  C   UNL     1      -8.372 -10.353  11.842  1.00  0.00    -0.009 C 
HETATM   14  C   UNL     1      -7.673 -12.427  12.992  1.00  0.00     0.091 C 
HETATM   15  C   UNL     1      -7.965 -13.284  14.193  1.00  0.00    -0.043 A 
HETATM   16  C   UNL     1      -7.186 -15.024  15.713  1.00  0.00     0.040 A 
HETATM   17  C   UNL     1      -8.375 -14.881  16.464  1.00  0.00     0.102 A 
HETATM   18  C   UNL     1      -9.370 -13.936  16.033  1.00  0.00     0.109 A 
ENDROOT
BRANCH   3  19
HETATM   19  O   UNL     1      -7.270  -9.735   8.369  1.00  0.00    -0.353 OA
HETATM   20  C   UNL     1      -8.293  -9.759   7.406  1.00  0.00     0.210 C 
ENDBRANCH   3  19
BRANCH   5  21
HETATM   21  O   UNL     1      -7.015  -7.242   9.325  1.00  0.00    -0.353 OA
HETATM   22  C   UNL     1      -7.531  -5.909   9.509  1.00  0.00     0.210 C 
ENDBRANCH   5  21
BRANCH  18  23
HETATM   23  O   UNL     1     -10.556 -13.795  16.740  1.00  0.00    -0.352 OA
HETATM   24  C   UNL     1     -11.682 -14.573  16.361  1.00  0.00     0.210 C 
ENDBRANCH  18  23
BRANCH  17  25
HETATM   25  O   UNL     1      -8.636 -15.625  17.628  1.00  0.00    -0.353 OA
HETATM   26  C   UNL     1      -8.712 -14.953  18.935  1.00  0.00     0.210 C 
ENDBRANCH  17  25
TORSDOF 4
ENDMDL
MODEL 5
REMARK VINA RESULT:    -7.137      1.270      7.875
REMARK INTER + INTRA:          -8.960
REMARK INTER:                  -9.050
REMARK INTRA:                   0.090
REMARK UNBOUND:                -0.154
REMARK  4 active torsions:
REMARK  status: ('A' for Active; 'I' for Inactive)
REMARK    1  A    between atoms: O_3  and  C_25 
REMARK    2  A    between atoms: O_5  and  C_6 
REMARK    3  A    between atoms: C_8  and  O_9 
REMARK    4  A    between atoms: C_22  and  O_23 
ROOT
HETATM    1  C   UNL     1      -7.665 -13.520  14.496  1.00  0.00    -0.002 A 
HETATM    2  C   UNL     1      -8.721 -11.864  15.932  1.00  0.00     0.011 A 
HETATM    3  C   UNL     1      -7.015  -8.593  10.173  1.00  0.00     0.102 C 
HETATM    4  C   UNL     1      -6.801  -9.366  11.286  1.00  0.00     0.053 C 
HETATM    5  C   UNL     1      -7.892  -8.913   9.136  1.00  0.00     0.102 C 
HETATM    6  C   UNL     1      -8.550 -10.206   9.150  1.00  0.00     0.047 C 
HETATM    7  C   UNL     1      -8.272 -10.990  10.230  1.00  0.00    -0.042 C 
HETATM    8  C   UNL     1      -8.936 -12.373  10.229  1.00  0.00     0.054 C 
HETATM    9  C   UNL     1      -8.763 -13.146  11.560  1.00  0.00     0.100 C 
HETATM   10  N   UNL     1      -7.315 -13.020  12.061  1.00  0.00    -0.281 NA
HETATM   11  C   UNL     1      -6.900 -13.814  13.222  1.00  0.00     0.137 C 
HETATM   12  C   UNL     1      -7.267 -11.601  12.445  1.00  0.00     0.003 C 
HETATM   13  C   UNL     1      -7.404 -10.689  11.307  1.00  0.00    -0.009 C 
HETATM   14  C   UNL     1      -7.903 -11.077  13.697  1.00  0.00     0.091 C 
HETATM   15  C   UNL     1      -8.063 -12.165  14.723  1.00  0.00    -0.043 A 
HETATM   16  C   UNL     1      -8.937 -12.820  16.904  1.00  0.00     0.040 A 
HETATM   17  C   UNL     1      -8.484 -14.139  16.674  1.00  0.00     0.102 A 
HETATM   18  C   UNL     1      -7.789 -14.441  15.452  1.00  0.00     0.109 A 
ENDROOT
BRANCH   3  19
HETATM   19  O   UNL     1      -6.534  -7.287  10.156  1.00  0.00    -0.353 OA
HETATM   20  C   UNL     1      -7.457  -6.288  10.509  1.00  0.00     0.210 C 
ENDBRANCH   3  19
BRANCH   5  21
HETATM   21  O   UNL     1      -8.066  -8.035   8.087  1.00  0.00    -0.353 OA
HETATM   22  C   UNL     1      -8.502  -8.551   6.814  1.00  0.00     0.210 C 
ENDBRANCH   5  21
BRANCH  18  23
HETATM   23  O   UNL     1      -7.313 -15.723  15.213  1.00  0.00    -0.352 OA
HETATM   24  C   UNL     1      -6.075 -16.117  15.784  1.00  0.00     0.210 C 
ENDBRANCH  18  23
BRANCH  17  25
HETATM   25  O   UNL     1      -8.684 -15.185  17.591  1.00  0.00    -0.353 OA
HETATM   26  C   UNL     1      -8.812 -14.896  19.028  1.00  0.00     0.210 C 
ENDBRANCH  17  25
TORSDOF 4
ENDMDL
MODEL 6
REMARK VINA RESULT:    -6.914      1.886      8.185
REMARK INTER + INTRA:          -8.686
REMARK INTER:                  -8.527
REMARK INTRA:                  -0.159
REMARK UNBOUND:                -0.154
REMARK  4 active torsions:
REMARK  status: ('A' for Active; 'I' for Inactive)
REMARK    1  A    between atoms: O_3  and  C_25 
REMARK    2  A    between atoms: O_5  and  C_6 
REMARK    3  A    between atoms: C_8  and  O_9 
REMARK    4  A    between atoms: C_22  and  O_23 
ROOT
HETATM    1  C   UNL     1      -9.565 -13.055  14.886  1.00  0.00    -0.002 A 
HETATM    2  C   UNL     1      -7.230 -13.543  15.365  1.00  0.00     0.011 A 
HETATM    3  C   UNL     1      -7.237  -9.285  10.013  1.00  0.00     0.102 C 
HETATM    4  C   UNL     1      -7.578 -10.409  10.720  1.00  0.00     0.053 C 
HETATM    5  C   UNL     1      -7.514  -7.977  10.413  1.00  0.00     0.102 C 
HETATM    6  C   UNL     1      -8.323  -7.764  11.599  1.00  0.00     0.047 C 
HETATM    7  C   UNL     1      -8.710  -8.897  12.250  1.00  0.00    -0.042 C 
HETATM    8  C   UNL     1      -9.599  -8.678  13.482  1.00  0.00     0.054 C 
HETATM    9  C   UNL     1      -9.845  -9.964  14.308  1.00  0.00     0.100 C 
HETATM   10  N   UNL     1     -10.156 -11.143  13.371  1.00  0.00    -0.281 NA
HETATM   11  C   UNL     1     -10.580 -12.417  13.960  1.00  0.00     0.137 C 
HETATM   12  C   UNL     1      -8.849 -11.354  12.731  1.00  0.00     0.003 C 
HETATM   13  C   UNL     1      -8.432 -10.235  11.884  1.00  0.00    -0.009 C 
HETATM   14  C   UNL     1      -7.702 -12.020  13.431  1.00  0.00     0.091 C 
HETATM   15  C   UNL     1      -8.184 -12.904  14.548  1.00  0.00    -0.043 A 
HETATM   16  C   UNL     1      -7.598 -14.339  16.431  1.00  0.00     0.040 A 
HETATM   17  C   UNL     1      -8.973 -14.514  16.708  1.00  0.00     0.102 A 
HETATM   18  C   UNL     1      -9.947 -13.883  15.859  1.00  0.00     0.109 A 
ENDROOT
BRANCH   3  19
HETATM   19  O   UNL     1      -6.345  -9.400   8.950  1.00  0.00    -0.353 OA
HETATM   20  C   UNL     1      -5.013  -9.682   9.295  1.00  0.00     0.210 C 
ENDBRANCH   3  19
BRANCH   5  21
HETATM   21  O   UNL     1      -7.079  -6.916   9.647  1.00  0.00    -0.353 OA
HETATM   22  C   UNL     1      -7.571  -5.595   9.945  1.00  0.00     0.210 C 
ENDBRANCH   5  21
BRANCH  18  23
HETATM   23  O   UNL     1     -11.303 -14.059  16.096  1.00  0.00    -0.352 OA
HETATM   24  C   UNL     1     -11.945 -13.244  17.066  1.00  0.00     0.210 C 
ENDBRANCH  18  23
BRANCH  17  25
HETATM   25  O   UNL     1      -9.441 -15.281  17.788  1.00  0.00    -0.353 OA
HETATM   26  C   UNL     1      -8.792 -15.180  19.105  1.00  0.00     0.210 C 
ENDBRANCH  17  25
TORSDOF 4
ENDMDL
MODEL 7
REMARK VINA RESULT:    -6.780      1.507      3.190
REMARK INTER + INTRA:          -8.520
REMARK INTER:                  -8.937
REMARK INTRA:                   0.417
REMARK UNBOUND:                -0.154
REMARK  4 active torsions:
REMARK  status: ('A' for Active; 'I' for Inactive)
REMARK    1  A    between atoms: O_3  and  C_25 
REMARK    2  A    between atoms: O_5  and  C_6 
REMARK    3  A    between atoms: C_8  and  O_9 
REMARK    4  A    between atoms: C_22  and  O_23 
ROOT
HETATM    1  C   UNL     1      -7.832  -9.749  11.649  1.00  0.00    -0.002 A 
HETATM    2  C   UNL     1      -7.978 -11.489   9.955  1.00  0.00     0.011 A 
HETATM    3  C   UNL     1      -7.247 -14.709  15.944  1.00  0.00     0.102 C 
HETATM    4  C   UNL     1      -6.922 -13.820  14.951  1.00  0.00     0.053 C 
HETATM    5  C   UNL     1      -8.437 -14.689  16.673  1.00  0.00     0.102 C 
HETATM    6  C   UNL     1      -9.365 -13.593  16.468  1.00  0.00     0.047 C 
HETATM    7  C   UNL     1      -8.992 -12.682  15.525  1.00  0.00    -0.042 C 
HETATM    8  C   UNL     1      -9.952 -11.500  15.334  1.00  0.00     0.054 C 
HETATM    9  C   UNL     1      -9.602 -10.605  14.120  1.00  0.00     0.100 C 
HETATM   10  N   UNL     1      -8.087 -10.343  14.075  1.00  0.00    -0.281 NA
HETATM   11  C   UNL     1      -7.567  -9.384  13.095  1.00  0.00     0.137 C 
HETATM   12  C   UNL     1      -7.576 -11.676  13.716  1.00  0.00     0.003 C 
HETATM   13  C   UNL     1      -7.804 -12.681  14.756  1.00  0.00    -0.009 C 
HETATM   14  C   UNL     1      -7.671 -12.234  12.328  1.00  0.00     0.091 C 
HETATM   15  C   UNL     1      -7.795 -11.137  11.306  1.00  0.00    -0.043 A 
HETATM   16  C   UNL     1      -8.136 -10.537   8.967  1.00  0.00     0.040 A 
HETATM   17  C   UNL     1      -8.114  -9.171   9.329  1.00  0.00     0.102 A 
HETATM   18  C   UNL     1      -7.900  -8.811  10.705  1.00  0.00     0.109 A 
ENDROOT
BRANCH   3  19
HETATM   19  O   UNL     1      -6.480 -15.860  16.098  1.00  0.00    -0.353 OA
HETATM   20  C   UNL     1      -6.359 -16.673  14.959  1.00  0.00     0.210 C 
ENDBRANCH   3  19
BRANCH   5  21
HETATM   21  O   UNL     1      -8.682 -15.664  17.617  1.00  0.00    -0.353 OA
HETATM   22  C   UNL     1      -8.783 -15.280  19.002  1.00  0.00     0.210 C 
ENDBRANCH   5  21
BRANCH  18  23
HETATM   23  O   UNL     1      -7.851  -7.476  11.081  1.00  0.00    -0.352 OA
HETATM   24  C   UNL     1      -7.213  -6.541  10.224  1.00  0.00     0.210 C 
ENDBRANCH  18  23
BRANCH  17  25
HETATM   25  O   UNL     1      -8.296  -8.133   8.399  1.00  0.00    -0.353 OA
HETATM   26  C   UNL     1      -8.427  -8.437   6.965  1.00  0.00     0.210 C 
ENDBRANCH  17  25
TORSDOF 4
ENDMDL
