REMARK  8 active torsions:
REMARK  status: ('A' for Active; 'I' for Inactive)
REMARK    1  A    between atoms: N_4  and  C_5 
REMARK    2  A    between atoms: N_13  and  C_14 
REMARK    3  A    between atoms: P_19  and  O_21 
REMARK    4  A    between atoms: C_24  and  O_25 
REMARK    5  A    between atoms: P_27  and  O_29 
REMARK    6  A    between atoms: C_31  and  O_32 
REMARK    7  A    between atoms: C_34  and  N_35 
REMARK    8  A    between atoms: C_40  and  N_41 
ROOT
HETATM    1  C   UNL     1      -2.701  -2.486  -1.989  1.00  0.00     0.180 C 
HETATM    2  C   UNL     1      -1.306  -2.551  -2.654  1.00  0.00     0.215 C 
HETATM    3  C   UNL     1       1.808   0.455  -1.410  1.00  0.00     0.197 C 
HETATM    4  C   UNL     1       1.737   2.770  -0.853  1.00  0.00     0.262 C 
HETATM    5  O   UNL     1       0.673   2.186  -0.146  1.00  0.00    -0.353 OA
HETATM    6  C   UNL     1       0.545   0.857  -0.610  1.00  0.00     0.180 C 
HETATM    7  C   UNL     1       0.308  -0.075   0.588  1.00  0.00     0.215 C 
HETATM    8  O   UNL     1      -0.961   0.195   1.148  1.00  0.00    -0.294 OA
HETATM    9  P   UNL     1      -1.404  -1.050   2.244  1.00  0.00     0.393 P 
HETATM   10  O   UNL     1      -0.222  -1.921   2.619  1.00  0.00    -0.631 OA
HETATM   11  O   UNL     1      -2.648  -2.032   1.589  1.00  0.00    -0.284 OA
HETATM   12  C   UNL     1      -2.260  -2.475   0.305  1.00  0.00     0.214 C 
HETATM   13  C   UNL     1      -2.718  -1.545  -0.788  1.00  0.00     0.183 C 
HETATM   14  O   UNL     1      -0.810  -1.244  -2.865  1.00  0.00    -0.294 OA
HETATM   15  P   UNL     1       0.885  -1.285  -3.085  1.00  0.00     0.393 P 
HETATM   16  O   UNL     1       1.169  -1.647  -4.526  1.00  0.00    -0.631 OA
HETATM   17  O   UNL     1       1.514   0.282  -2.788  1.00  0.00    -0.286 OA
HETATM   18  C   UNL     1       2.712   1.657  -1.212  1.00  0.00     0.199 C 
HETATM   19  O   UNL     1      -3.061  -3.776  -1.524  1.00  0.00    -0.353 OA
HETATM   20  C   UNL     1      -2.970  -3.757  -0.108  1.00  0.00     0.263 C 
ENDROOT
BRANCH   4  21
HETATM   21  N   UNL     1       2.377   3.794  -0.026  1.00  0.00    -0.297 N 
HETATM   22  C   UNL     1       2.509   5.101  -0.287  1.00  0.00     0.159 A 
HETATM   23  N   UNL     1       2.106   5.772  -1.393  1.00  0.00    -0.174 N 
HETATM   24  C   UNL     1       3.083   5.717   0.770  1.00  0.00     0.147 A 
HETATM   25  C   UNL     1       2.301   7.127  -1.434  1.00  0.00     0.680 A 
ATOM     26  HN  UNL     1       1.669   5.282  -2.174  1.00  0.00     0.186 HD
HETATM   27  N   UNL     1       2.886   7.776  -0.370  1.00  0.00    -0.154 N 
HETATM   28  C   UNL     1       3.281   7.089   0.746  1.00  0.00     0.290 A 
HETATM   29  H   UNL     1       3.021   8.811  -0.409  1.00  0.00     0.187 HD
HETATM   30  O   UNL     1       3.801   7.689   1.724  1.00  0.00    -0.265 OA
HETATM   31  N   UNL     1       3.339   4.833   1.754  1.00  0.00    -0.345 N 
HETATM   32  C   UNL     1       2.886   3.661   1.228  1.00  0.00     0.188 A 
ATOM     33  HN  UNL     1       3.766   5.000   2.665  1.00  0.00     0.167 HD
BRANCH  25  34
HETATM   34  N   UNL     1       1.878   7.866  -2.580  1.00  0.00    -0.234 N 
HETATM   35  H   UNL     1       1.457   7.375  -3.401  1.00  0.00     0.174 HD
HETATM   36  H   UNL     1       1.966   8.907  -2.605  1.00  0.00     0.174 HD
ENDBRANCH  25  34
ENDBRANCH   4  21
BRANCH  18  37
HETATM   37  O   UNL     1       3.511   1.954  -2.333  1.00  0.00    -0.388 OA
HETATM   38  H   UNL     1       2.928   2.294  -3.059  1.00  0.00     0.210 HD
ENDBRANCH  18  37
BRANCH  15  39
HETATM   39  O   UNL     1       1.625  -2.438  -2.081  1.00  0.00    -0.307 OA
HETATM   40  H   UNL     1       2.554  -2.511  -2.417  1.00  0.00     0.222 HD
ENDBRANCH  15  39
BRANCH   9  41
HETATM   41  O   UNL     1      -2.002  -0.323   3.649  1.00  0.00    -0.307 OA
HETATM   42  H   UNL     1      -1.225   0.153   4.039  1.00  0.00     0.222 HD
ENDBRANCH   9  41
BRANCH  13  43
HETATM   43  O   UNL     1      -4.035  -1.104  -0.557  1.00  0.00    -0.390 OA
HETATM   44  H   UNL     1      -3.975  -0.333   0.065  1.00  0.00     0.210 HD
ENDBRANCH  13  43
BRANCH  20  45
HETATM   45  N   UNL     1      -2.242  -4.932   0.376  1.00  0.00    -0.297 N 
HETATM   46  C   UNL     1      -1.307  -5.675  -0.275  1.00  0.00     0.188 A 
HETATM   47  N   UNL     1      -0.757  -6.652   0.499  1.00  0.00    -0.346 N 
HETATM   48  C   UNL     1      -1.384  -6.482   1.678  1.00  0.00     0.122 A 
ATOM     49  HN  UNL     1      -0.047  -7.340   0.248  1.00  0.00     0.167 HD
HETATM   50  C   UNL     1      -1.234  -7.186   2.867  1.00  0.00     0.131 A 
HETATM   51  C   UNL     1      -2.261  -5.455   1.607  1.00  0.00     0.142 A 
HETATM   52  N   UNL     1      -2.000  -6.800   3.932  1.00  0.00    -0.337 N 
HETATM   53  C   UNL     1      -2.881  -5.752   3.836  1.00  0.00     0.183 A 
ATOM     54  HN  UNL     1      -1.915  -7.301   4.816  1.00  0.00     0.168 HD
HETATM   55  N   UNL     1      -3.018  -5.066   2.661  1.00  0.00    -0.336 N 
ATOM     56  HN  UNL     1      -3.670  -4.286   2.581  1.00  0.00     0.168 HD
BRANCH  50  57
HETATM   57  N   UNL     1      -0.325  -8.282   2.984  1.00  0.00    -0.383 N 
HETATM   58  H   UNL     1       0.280  -8.564   2.182  1.00  0.00     0.157 HD
HETATM   59  H   UNL     1      -0.211  -8.775   3.897  1.00  0.00     0.157 HD
ENDBRANCH  50  57
ENDBRANCH  20  45
TORSDOF 8
