MODEL 1
REMARK VINA RESULT:    -5.041      0.000      0.000
REMARK INTER + INTRA:          -6.683
REMARK INTER:                  -6.219
REMARK INTRA:                  -0.464
REMARK UNBOUND:                -0.464
REMARK  6 active torsions:
REMARK  status: ('A' for Active; 'I' for Inactive)
REMARK    1  A    between atoms: C_1  and  O_11 
REMARK    2  A    between atoms: C_2  and  N_9 
REMARK    3  A    between atoms: C_3  and  O_13 
REMARK    4  A    between atoms: C_4  and  O_15 
REMARK    5  A    between atoms: C_5  and  C_6 
REMARK    6  A    between atoms: C_6  and  O_18 
REMARK       I    between atoms: C_7  and  N_9 
ROOT
HETATM    1  C   UNL     1      48.597  19.640  73.590  1.00  0.00     0.282 C 
HETATM    2  C   UNL     1      49.793  20.268  74.310  1.00  0.00     0.170 C 
HETATM    3  C   UNL     1      50.240  19.388  75.474  1.00  0.00     0.177 C 
HETATM    4  C   UNL     1      49.056  19.084  76.374  1.00  0.00     0.180 C 
HETATM    5  C   UNL     1      47.974  18.464  75.508  1.00  0.00     0.179 C 
HETATM    6  O   UNL     1      47.551  19.410  74.529  1.00  0.00    -0.349 OA
ENDROOT
BRANCH   2   7
HETATM    7  N   UNL     1      50.897  20.447  73.387  1.00  0.00    -0.349 N 
HETATM    8  C   UNL     1      51.755  21.468  73.470  1.00  0.00     0.214 C 
HETATM    9  C   UNL     1      52.838  21.446  72.430  1.00  0.00     0.117 C 
HETATM   10  O   UNL     1      51.685  22.359  74.313  1.00  0.00    -0.274 OA
ATOM     11  HN  UNL     1      51.025  19.763  72.642  1.00  0.00     0.163 HD
ENDBRANCH   2   7
BRANCH   1  12
HETATM   12  O   UNL     1      48.095  20.465  72.533  1.00  0.00    -0.369 OA
ATOM     13  HO  UNL     1      48.718  21.162  72.366  1.00  0.00     0.212 HD
ENDBRANCH   1  12
BRANCH   3  14
HETATM   14  O   UNL     1      51.247  20.026  76.259  1.00  0.00    -0.391 OA
ATOM     15  HO  UNL     1      51.365  19.525  77.056  1.00  0.00     0.210 HD
ENDBRANCH   3  14
BRANCH   4  16
HETATM   16  O   UNL     1      48.641  20.313  77.003  1.00  0.00    -0.390 OA
ATOM     17  HO  UNL     1      47.697  20.403  77.057  1.00  0.00     0.210 HD
ENDBRANCH   4  16
BRANCH   5  18
HETATM   18  C   UNL     1      46.785  18.022  76.342  1.00  0.00     0.198 C 
BRANCH  18  19
HETATM   19  O   UNL     1      45.852  19.097  76.308  1.00  0.00    -0.398 OA
ATOM     20  HO  UNL     1      45.009  18.712  76.097  1.00  0.00     0.209 HD
ENDBRANCH  18  19
ENDBRANCH   5  18
TORSDOF 6
ENDMDL
MODEL 2
REMARK VINA RESULT:    -4.765     12.381     13.677
REMARK INTER + INTRA:          -6.344
REMARK INTER:                  -5.860
REMARK INTRA:                  -0.484
REMARK UNBOUND:                -0.464
REMARK  6 active torsions:
REMARK  status: ('A' for Active; 'I' for Inactive)
REMARK    1  A    between atoms: C_1  and  O_11 
REMARK    2  A    between atoms: C_2  and  N_9 
REMARK    3  A    between atoms: C_3  and  O_13 
REMARK    4  A    between atoms: C_4  and  O_15 
REMARK    5  A    between atoms: C_5  and  C_6 
REMARK    6  A    between atoms: C_6  and  O_18 
REMARK       I    between atoms: C_7  and  N_9 
ROOT
HETATM    1  C   UNL     1      54.805  29.011  81.502  1.00  0.00     0.282 C 
HETATM    2  C   UNL     1      54.263  28.598  82.872  1.00  0.00     0.170 C 
HETATM    3  C   UNL     1      55.324  28.804  83.952  1.00  0.00     0.177 C 
HETATM    4  C   UNL     1      56.609  28.105  83.549  1.00  0.00     0.180 C 
HETATM    5  C   UNL     1      57.006  28.634  82.182  1.00  0.00     0.179 C 
HETATM    6  O   UNL     1      56.001  28.288  81.231  1.00  0.00    -0.349 OA
ENDROOT
BRANCH   2   7
HETATM    7  N   UNL     1      53.083  29.374  83.201  1.00  0.00    -0.349 N 
HETATM    8  C   UNL     1      52.071  28.885  83.924  1.00  0.00     0.214 C 
HETATM    9  C   UNL     1      50.961  29.867  84.168  1.00  0.00     0.117 C 
HETATM   10  O   UNL     1      52.029  27.738  84.364  1.00  0.00    -0.274 OA
ATOM     11  HN  UNL     1      53.022  30.334  82.864  1.00  0.00     0.163 HD
ENDBRANCH   2   7
BRANCH   1  12
HETATM   12  O   UNL     1      53.870  28.769  80.444  1.00  0.00    -0.369 OA
ATOM     13  HO  UNL     1      54.290  28.234  79.780  1.00  0.00     0.212 HD
ENDBRANCH   1  12
BRANCH   3  14
HETATM   14  O   UNL     1      54.902  28.277  85.209  1.00  0.00    -0.391 OA
ATOM     15  HO  UNL     1      55.405  27.491  85.386  1.00  0.00     0.210 HD
ENDBRANCH   3  14
BRANCH   4  16
HETATM   16  O   UNL     1      56.372  26.683  83.558  1.00  0.00    -0.390 OA
ATOM     17  HO  UNL     1      56.707  26.255  84.337  1.00  0.00     0.210 HD
ENDBRANCH   4  16
BRANCH   5  18
HETATM   18  C   UNL     1      58.345  28.073  81.740  1.00  0.00     0.198 C 
BRANCH  18  19
HETATM   19  O   UNL     1      58.077  26.789  81.184  1.00  0.00    -0.398 OA
ATOM     20  HO  UNL     1      58.549  26.752  80.360  1.00  0.00     0.209 HD
ENDBRANCH  18  19
ENDBRANCH   5  18
TORSDOF 6
ENDMDL
MODEL 3
REMARK VINA RESULT:    -4.724      3.565      5.282
REMARK INTER + INTRA:          -6.293
REMARK INTER:                  -5.811
REMARK INTRA:                  -0.482
REMARK UNBOUND:                -0.464
REMARK  6 active torsions:
REMARK  status: ('A' for Active; 'I' for Inactive)
REMARK    1  A    between atoms: C_1  and  O_11 
REMARK    2  A    between atoms: C_2  and  N_9 
REMARK    3  A    between atoms: C_3  and  O_13 
REMARK    4  A    between atoms: C_4  and  O_15 
REMARK    5  A    between atoms: C_5  and  C_6 
REMARK    6  A    between atoms: C_6  and  O_18 
REMARK       I    between atoms: C_7  and  N_9 
ROOT
HETATM    1  C   UNL     1      49.141  17.238  73.788  1.00  0.00     0.282 C 
HETATM    2  C   UNL     1      47.792  16.519  73.709  1.00  0.00     0.170 C 
HETATM    3  C   UNL     1      46.647  17.506  73.923  1.00  0.00     0.177 C 
HETATM    4  C   UNL     1      46.869  18.281  75.209  1.00  0.00     0.180 C 
HETATM    5  C   UNL     1      48.238  18.933  75.116  1.00  0.00     0.179 C 
HETATM    6  O   UNL     1      49.239  17.920  75.034  1.00  0.00    -0.349 OA
ENDROOT
BRANCH   2   7
HETATM    7  N   UNL     1      47.641  15.875  72.419  1.00  0.00    -0.349 N 
HETATM    8  C   UNL     1      48.031  14.619  72.184  1.00  0.00     0.214 C 
HETATM    9  C   UNL     1      47.757  14.143  70.786  1.00  0.00     0.117 C 
HETATM   10  O   UNL     1      48.569  13.897  73.021  1.00  0.00    -0.274 OA
ATOM     11  HN  UNL     1      47.218  16.404  71.656  1.00  0.00     0.163 HD
ENDBRANCH   2   7
BRANCH   1  12
HETATM   12  O   UNL     1      50.251  16.342  73.665  1.00  0.00    -0.369 OA
ATOM     13  HO  UNL     1      50.366  16.120  72.749  1.00  0.00     0.212 HD
ENDBRANCH   1  12
BRANCH   3  14
HETATM   14  O   UNL     1      45.389  16.838  74.015  1.00  0.00    -0.391 OA
ATOM     15  HO  UNL     1      44.912  16.989  73.208  1.00  0.00     0.210 HD
ENDBRANCH   3  14
BRANCH   4  16
HETATM   16  O   UNL     1      46.753  17.365  76.315  1.00  0.00    -0.390 OA
ATOM     17  HO  UNL     1      45.878  17.010  76.414  1.00  0.00     0.210 HD
ENDBRANCH   4  16
BRANCH   5  18
HETATM   18  C   UNL     1      48.507  19.825  76.314  1.00  0.00     0.198 C 
BRANCH  18  19
HETATM   19  O   UNL     1      49.078  18.988  77.315  1.00  0.00    -0.398 OA
ATOM     20  HO  UNL     1      49.291  18.167  76.887  1.00  0.00     0.209 HD
ENDBRANCH  18  19
ENDBRANCH   5  18
TORSDOF 6
ENDMDL
MODEL 4
REMARK VINA RESULT:    -4.715      1.402      2.750
REMARK INTER + INTRA:          -6.282
REMARK INTER:                  -5.800
REMARK INTRA:                  -0.482
REMARK UNBOUND:                -0.464
REMARK  6 active torsions:
REMARK  status: ('A' for Active; 'I' for Inactive)
REMARK    1  A    between atoms: C_1  and  O_11 
REMARK    2  A    between atoms: C_2  and  N_9 
REMARK    3  A    between atoms: C_3  and  O_13 
REMARK    4  A    between atoms: C_4  and  O_15 
REMARK    5  A    between atoms: C_5  and  C_6 
REMARK    6  A    between atoms: C_6  and  O_18 
REMARK       I    between atoms: C_7  and  N_9 
ROOT
HETATM    1  C   UNL     1      49.260  19.739  76.357  1.00  0.00     0.282 C 
HETATM    2  C   UNL     1      49.419  19.424  74.867  1.00  0.00     0.170 C 
HETATM    3  C   UNL     1      48.055  19.358  74.185  1.00  0.00     0.177 C 
HETATM    4  C   UNL     1      47.151  18.397  74.936  1.00  0.00     0.180 C 
HETATM    5  C   UNL     1      47.099  18.858  76.382  1.00  0.00     0.179 C 
HETATM    6  O   UNL     1      48.403  18.772  76.953  1.00  0.00    -0.349 OA
ENDROOT
BRANCH   2   7
HETATM    7  N   UNL     1      50.233  20.437  74.223  1.00  0.00    -0.349 N 
HETATM    8  C   UNL     1      51.557  20.326  74.085  1.00  0.00     0.214 C 
HETATM    9  C   UNL     1      52.198  21.477  73.365  1.00  0.00     0.117 C 
HETATM   10  O   UNL     1      52.215  19.375  74.501  1.00  0.00    -0.274 OA
ATOM     11  HN  UNL     1      49.774  21.272  73.860  1.00  0.00     0.163 HD
ENDBRANCH   2   7
BRANCH   1  12
HETATM   12  O   UNL     1      50.510  19.741  77.055  1.00  0.00    -0.369 OA
ATOM     13  HO  UNL     1      50.527  20.479  77.653  1.00  0.00     0.212 HD
ENDBRANCH   1  12
BRANCH   3  14
HETATM   14  O   UNL     1      48.164  18.908  72.836  1.00  0.00    -0.391 OA
ATOM     15  HO  UNL     1      48.112  17.959  72.833  1.00  0.00     0.210 HD
ENDBRANCH   3  14
BRANCH   4  16
HETATM   16  O   UNL     1      47.683  17.066  74.786  1.00  0.00    -0.390 OA
ATOM     17  HO  UNL     1      48.532  17.050  74.361  1.00  0.00     0.210 HD
ENDBRANCH   4  16
BRANCH   5  18
HETATM   18  C   UNL     1      46.128  18.021  77.194  1.00  0.00     0.198 C 
BRANCH  18  19
HETATM   19  O   UNL     1      45.080  17.648  76.304  1.00  0.00    -0.398 OA
ATOM     20  HO  UNL     1      44.429  17.199  76.831  1.00  0.00     0.209 HD
ENDBRANCH  18  19
ENDBRANCH   5  18
TORSDOF 6
ENDMDL
MODEL 5
REMARK VINA RESULT:    -4.606     13.136     14.244
REMARK INTER + INTRA:          -6.147
REMARK INTER:                  -5.646
REMARK INTRA:                  -0.502
REMARK UNBOUND:                -0.464
REMARK  6 active torsions:
REMARK  status: ('A' for Active; 'I' for Inactive)
REMARK    1  A    between atoms: C_1  and  O_11 
REMARK    2  A    between atoms: C_2  and  N_9 
REMARK    3  A    between atoms: C_3  and  O_13 
REMARK    4  A    between atoms: C_4  and  O_15 
REMARK    5  A    between atoms: C_5  and  C_6 
REMARK    6  A    between atoms: C_6  and  O_18 
REMARK       I    between atoms: C_7  and  N_9 
ROOT
HETATM    1  C   UNL     1      54.921  30.440  82.683  1.00  0.00     0.282 C 
HETATM    2  C   UNL     1      56.136  29.679  83.219  1.00  0.00     0.170 C 
HETATM    3  C   UNL     1      55.844  28.182  83.286  1.00  0.00     0.177 C 
HETATM    4  C   UNL     1      54.562  27.942  84.062  1.00  0.00     0.180 C 
HETATM    5  C   UNL     1      53.468  28.758  83.396  1.00  0.00     0.179 C 
HETATM    6  O   UNL     1      53.788  30.145  83.491  1.00  0.00    -0.349 OA
ENDROOT
BRANCH   2   7
HETATM    7  N   UNL     1      57.289  29.909  82.369  1.00  0.00    -0.349 N 
HETATM    8  C   UNL     1      58.205  30.847  82.626  1.00  0.00     0.214 C 
HETATM    9  C   UNL     1      59.329  30.896  81.630  1.00  0.00     0.117 C 
HETATM   10  O   UNL     1      58.156  31.613  83.585  1.00  0.00    -0.274 OA
ATOM     11  HN  UNL     1      57.405  29.329  81.538  1.00  0.00     0.163 HD
ENDBRANCH   2   7
BRANCH   1  12
HETATM   12  O   UNL     1      55.122  31.857  82.669  1.00  0.00    -0.369 OA
ATOM     13  HO  UNL     1      54.763  32.226  83.468  1.00  0.00     0.212 HD
ENDBRANCH   1  12
BRANCH   3  14
HETATM   14  O   UNL     1      56.898  27.469  83.932  1.00  0.00    -0.391 OA
ATOM     15  HO  UNL     1      56.522  26.722  84.381  1.00  0.00     0.210 HD
ENDBRANCH   3  14
BRANCH   4  16
HETATM   16  O   UNL     1      54.789  28.317  85.435  1.00  0.00    -0.390 OA
ATOM     17  HO  UNL     1      54.536  29.213  85.624  1.00  0.00     0.210 HD
ENDBRANCH   4  16
BRANCH   5  18
HETATM   18  C   UNL     1      52.117  28.498  84.037  1.00  0.00     0.198 C 
BRANCH  18  19
HETATM   19  O   UNL     1      52.168  27.171  84.553  1.00  0.00    -0.398 OA
ATOM     20  HO  UNL     1      52.004  26.593  83.818  1.00  0.00     0.209 HD
ENDBRANCH  18  19
ENDBRANCH   5  18
TORSDOF 6
ENDMDL
MODEL 6
REMARK VINA RESULT:    -4.482      1.566      5.182
REMARK INTER + INTRA:          -5.994
REMARK INTER:                  -5.485
REMARK INTRA:                  -0.509
REMARK UNBOUND:                -0.464
REMARK  6 active torsions:
REMARK  status: ('A' for Active; 'I' for Inactive)
REMARK    1  A    between atoms: C_1  and  O_11 
REMARK    2  A    between atoms: C_2  and  N_9 
REMARK    3  A    between atoms: C_3  and  O_13 
REMARK    4  A    between atoms: C_4  and  O_15 
REMARK    5  A    between atoms: C_5  and  C_6 
REMARK    6  A    between atoms: C_6  and  O_18 
REMARK       I    between atoms: C_7  and  N_9 
ROOT
HETATM    1  C   UNL     1      50.234  19.474  75.921  1.00  0.00     0.282 C 
HETATM    2  C   UNL     1      48.972  19.864  75.147  1.00  0.00     0.170 C 
HETATM    3  C   UNL     1      49.280  20.008  73.658  1.00  0.00     0.177 C 
HETATM    4  C   UNL     1      50.452  20.953  73.464  1.00  0.00     0.180 C 
HETATM    5  C   UNL     1      51.610  20.417  74.287  1.00  0.00     0.179 C 
HETATM    6  O   UNL     1      51.255  20.433  75.669  1.00  0.00    -0.349 OA
ENDROOT
BRANCH   2   7
HETATM    7  N   UNL     1      47.939  18.864  75.332  1.00  0.00    -0.349 N 
HETATM    8  C   UNL     1      46.996  18.959  76.274  1.00  0.00     0.214 C 
HETATM    9  C   UNL     1      46.010  17.826  76.273  1.00  0.00     0.117 C 
HETATM   10  O   UNL     1      46.920  19.883  77.082  1.00  0.00    -0.274 OA
ATOM     11  HN  UNL     1      47.931  18.051  74.717  1.00  0.00     0.163 HD
ENDBRANCH   2   7
BRANCH   1  12
HETATM   12  O   UNL     1      50.011  19.398  77.333  1.00  0.00    -0.369 OA
ATOM     13  HO  UNL     1      50.826  19.587  77.783  1.00  0.00     0.212 HD
ENDBRANCH   1  12
BRANCH   3  14
HETATM   14  O   UNL     1      48.162  20.527  72.939  1.00  0.00    -0.391 OA
ATOM     15  HO  UNL     1      47.630  21.033  73.540  1.00  0.00     0.210 HD
ENDBRANCH   3  14
BRANCH   4  16
HETATM   16  O   UNL     1      50.038  22.274  73.865  1.00  0.00    -0.390 OA
ATOM     17  HO  UNL     1      50.142  22.430  74.796  1.00  0.00     0.210 HD
ENDBRANCH   4  16
BRANCH   5  18
HETATM   18  C   UNL     1      52.868  21.237  74.071  1.00  0.00     0.198 C 
BRANCH  18  19
HETATM   19  O   UNL     1      52.771  22.356  74.947  1.00  0.00    -0.398 OA
ATOM     20  HO  UNL     1      52.330  22.044  75.728  1.00  0.00     0.209 HD
ENDBRANCH  18  19
ENDBRANCH   5  18
TORSDOF 6
ENDMDL
MODEL 7
REMARK VINA RESULT:    -4.402     12.897     13.471
REMARK INTER + INTRA:          -5.896
REMARK INTER:                  -5.603
REMARK INTRA:                  -0.293
REMARK UNBOUND:                -0.464
REMARK  6 active torsions:
REMARK  status: ('A' for Active; 'I' for Inactive)
REMARK    1  A    between atoms: C_1  and  O_11 
REMARK    2  A    between atoms: C_2  and  N_9 
REMARK    3  A    between atoms: C_3  and  O_13 
REMARK    4  A    between atoms: C_4  and  O_15 
REMARK    5  A    between atoms: C_5  and  C_6 
REMARK    6  A    between atoms: C_6  and  O_18 
REMARK       I    between atoms: C_7  and  N_9 
ROOT
HETATM    1  C   UNL     1      54.171  27.465  84.282  1.00  0.00     0.282 C 
HETATM    2  C   UNL     1      55.310  27.932  83.372  1.00  0.00     0.170 C 
HETATM    3  C   UNL     1      55.389  29.457  83.353  1.00  0.00     0.177 C 
HETATM    4  C   UNL     1      54.030  30.038  83.005  1.00  0.00     0.180 C 
HETATM    5  C   UNL     1      53.029  29.482  84.002  1.00  0.00     0.179 C 
HETATM    6  O   UNL     1      52.953  28.066  83.856  1.00  0.00    -0.349 OA
ENDROOT
BRANCH   2   7
HETATM    7  N   UNL     1      56.574  27.389  83.831  1.00  0.00    -0.349 N 
HETATM    8  C   UNL     1      57.531  26.972  82.996  1.00  0.00     0.214 C 
HETATM    9  C   UNL     1      58.768  26.470  83.683  1.00  0.00     0.117 C 
HETATM   10  O   UNL     1      57.431  26.989  81.771  1.00  0.00    -0.274 OA
ATOM     11  HN  UNL     1      56.740  27.322  84.835  1.00  0.00     0.163 HD
ENDBRANCH   2   7
BRANCH   1  12
HETATM   12  O   UNL     1      54.010  26.042  84.277  1.00  0.00    -0.369 OA
ATOM     13  HO  UNL     1      53.754  25.766  83.405  1.00  0.00     0.212 HD
ENDBRANCH   1  12
BRANCH   3  14
HETATM   14  O   UNL     1      56.334  29.921  82.391  1.00  0.00    -0.391 OA
ATOM     15  HO  UNL     1      55.972  29.779  81.524  1.00  0.00     0.210 HD
ENDBRANCH   3  14
BRANCH   4  16
HETATM   16  O   UNL     1      53.725  29.685  81.641  1.00  0.00    -0.390 OA
ATOM     17  HO  UNL     1      54.424  29.203  81.216  1.00  0.00     0.210 HD
ENDBRANCH   4  16
BRANCH   5  18
HETATM   18  C   UNL     1      51.654  30.094  83.803  1.00  0.00     0.198 C 
BRANCH  18  19
HETATM   19  O   UNL     1      50.718  29.142  84.301  1.00  0.00    -0.398 OA
ATOM     20  HO  UNL     1      50.946  28.996  85.212  1.00  0.00     0.209 HD
ENDBRANCH  18  19
ENDBRANCH   5  18
TORSDOF 6
ENDMDL
MODEL 8
REMARK VINA RESULT:    -4.387      2.777      4.967
REMARK INTER + INTRA:          -5.877
REMARK INTER:                  -6.229
REMARK INTRA:                   0.351
REMARK UNBOUND:                -0.464
REMARK  6 active torsions:
REMARK  status: ('A' for Active; 'I' for Inactive)
REMARK    1  A    between atoms: C_1  and  O_11 
REMARK    2  A    between atoms: C_2  and  N_9 
REMARK    3  A    between atoms: C_3  and  O_13 
REMARK    4  A    between atoms: C_4  and  O_15 
REMARK    5  A    between atoms: C_5  and  C_6 
REMARK    6  A    between atoms: C_6  and  O_18 
REMARK       I    between atoms: C_7  and  N_9 
ROOT
HETATM    1  C   UNL     1      48.824  17.245  74.000  1.00  0.00     0.282 C 
HETATM    2  C   UNL     1      47.506  17.308  74.776  1.00  0.00     0.170 C 
HETATM    3  C   UNL     1      47.181  18.749  75.163  1.00  0.00     0.177 C 
HETATM    4  C   UNL     1      48.365  19.367  75.886  1.00  0.00     0.180 C 
HETATM    5  C   UNL     1      49.575  19.227  74.980  1.00  0.00     0.179 C 
HETATM    6  O   UNL     1      49.856  17.843  74.777  1.00  0.00    -0.349 OA
ENDROOT
BRANCH   2   7
HETATM    7  N   UNL     1      46.425  16.768  73.975  1.00  0.00    -0.349 N 
HETATM    8  C   UNL     1      46.159  17.188  72.735  1.00  0.00     0.214 C 
HETATM    9  C   UNL     1      45.012  16.475  72.078  1.00  0.00     0.117 C 
HETATM   10  O   UNL     1      46.784  18.077  72.161  1.00  0.00    -0.274 OA
ATOM     11  HN  UNL     1      45.841  16.034  74.376  1.00  0.00     0.163 HD
ENDBRANCH   2   7
BRANCH   1  12
HETATM   12  O   UNL     1      49.208  15.904  73.677  1.00  0.00    -0.369 OA
ATOM     13  HO  UNL     1      49.350  15.843  72.739  1.00  0.00     0.212 HD
ENDBRANCH   1  12
BRANCH   3  14
HETATM   14  O   UNL     1      46.045  18.818  76.024  1.00  0.00    -0.391 OA
ATOM     15  HO  UNL     1      45.320  19.183  75.531  1.00  0.00     0.210 HD
ENDBRANCH   3  14
BRANCH   4  16
HETATM   16  O   UNL     1      48.524  18.692  77.149  1.00  0.00    -0.390 OA
ATOM     17  HO  UNL     1      49.001  17.874  77.077  1.00  0.00     0.210 HD
ENDBRANCH   4  16
BRANCH   5  18
HETATM   18  C   UNL     1      50.791  19.916  75.571  1.00  0.00     0.198 C 
BRANCH  18  19
HETATM   19  O   UNL     1      51.820  18.933  75.625  1.00  0.00    -0.398 OA
ATOM     20  HO  UNL     1      51.753  18.433  74.820  1.00  0.00     0.209 HD
ENDBRANCH  18  19
ENDBRANCH   5  18
TORSDOF 6
ENDMDL
MODEL 9
REMARK VINA RESULT:    -4.293      2.051      2.340
REMARK INTER + INTRA:          -5.761
REMARK INTER:                  -5.272
REMARK INTRA:                  -0.489
REMARK UNBOUND:                -0.464
REMARK  6 active torsions:
REMARK  status: ('A' for Active; 'I' for Inactive)
REMARK    1  A    between atoms: C_1  and  O_11 
REMARK    2  A    between atoms: C_2  and  N_9 
REMARK    3  A    between atoms: C_3  and  O_13 
REMARK    4  A    between atoms: C_4  and  O_15 
REMARK    5  A    between atoms: C_5  and  C_6 
REMARK    6  A    between atoms: C_6  and  O_18 
REMARK       I    between atoms: C_7  and  N_9 
ROOT
HETATM    1  C   UNL     1      50.560  18.062  73.927  1.00  0.00     0.282 C 
HETATM    2  C   UNL     1      50.574  19.257  74.883  1.00  0.00     0.170 C 
HETATM    3  C   UNL     1      49.589  19.037  76.029  1.00  0.00     0.177 C 
HETATM    4  C   UNL     1      48.219  18.696  75.471  1.00  0.00     0.180 C 
HETATM    5  C   UNL     1      48.386  17.494  74.558  1.00  0.00     0.179 C 
HETATM    6  O   UNL     1      49.232  17.844  73.465  1.00  0.00    -0.349 OA
ENDROOT
BRANCH   2   7
HETATM    7  N   UNL     1      51.906  19.454  75.422  1.00  0.00    -0.349 N 
HETATM    8  C   UNL     1      52.574  20.605  75.303  1.00  0.00     0.214 C 
HETATM    9  C   UNL     1      53.926  20.600  75.957  1.00  0.00     0.117 C 
HETATM   10  O   UNL     1      52.142  21.595  74.717  1.00  0.00    -0.274 OA
ATOM     11  HN  UNL     1      52.353  18.680  75.913  1.00  0.00     0.163 HD
ENDBRANCH   2   7
BRANCH   1  12
HETATM   12  O   UNL     1      51.417  18.253  72.795  1.00  0.00    -0.369 OA
ATOM     13  HO  UNL     1      52.306  18.029  73.042  1.00  0.00     0.212 HD
ENDBRANCH   1  12
BRANCH   3  14
HETATM   14  O   UNL     1      49.463  20.201  76.844  1.00  0.00    -0.391 OA
ATOM     15  HO  UNL     1      49.721  20.955  76.328  1.00  0.00     0.210 HD
ENDBRANCH   3  14
BRANCH   4  16
HETATM   16  O   UNL     1      47.708  19.857  74.788  1.00  0.00    -0.390 OA
ATOM     17  HO  UNL     1      46.768  19.828  74.657  1.00  0.00     0.210 HD
ENDBRANCH   4  16
BRANCH   5  18
HETATM   18  C   UNL     1      47.047  17.006  74.036  1.00  0.00     0.198 C 
BRANCH  18  19
HETATM   19  O   UNL     1      46.071  17.426  74.984  1.00  0.00    -0.398 OA
ATOM     20  HO  UNL     1      46.417  17.201  75.840  1.00  0.00     0.209 HD
ENDBRANCH  18  19
ENDBRANCH   5  18
TORSDOF 6
ENDMDL
MODEL 10
REMARK VINA RESULT:    -4.290     12.753     13.162
REMARK INTER + INTRA:          -5.757
REMARK INTER:                  -5.292
REMARK INTRA:                  -0.464
REMARK UNBOUND:                -0.464
REMARK  6 active torsions:
REMARK  status: ('A' for Active; 'I' for Inactive)
REMARK    1  A    between atoms: C_1  and  O_11 
REMARK    2  A    between atoms: C_2  and  N_9 
REMARK    3  A    between atoms: C_3  and  O_13 
REMARK    4  A    between atoms: C_4  and  O_15 
REMARK    5  A    between atoms: C_5  and  C_6 
REMARK    6  A    between atoms: C_6  and  O_18 
REMARK       I    between atoms: C_7  and  N_9 
ROOT
HETATM    1  C   UNL     1      54.625  29.558  81.636  1.00  0.00     0.282 C 
HETATM    2  C   UNL     1      55.837  28.827  82.219  1.00  0.00     0.170 C 
HETATM    3  C   UNL     1      55.407  27.517  82.876  1.00  0.00     0.177 C 
HETATM    4  C   UNL     1      54.296  27.784  83.875  1.00  0.00     0.180 C 
HETATM    5  C   UNL     1      53.181  28.500  83.135  1.00  0.00     0.179 C 
HETATM    6  O   UNL     1      53.659  29.758  82.662  1.00  0.00    -0.349 OA
ENDROOT
BRANCH   2   7
HETATM    7  N   UNL     1      56.805  28.549  81.175  1.00  0.00    -0.349 N 
HETATM    8  C   UNL     1      57.848  29.346  80.922  1.00  0.00     0.214 C 
HETATM    9  C   UNL     1      58.739  28.856  79.816  1.00  0.00     0.117 C 
HETATM   10  O   UNL     1      58.079  30.391  81.526  1.00  0.00    -0.274 OA
ATOM     11  HN  UNL     1      56.686  27.709  80.610  1.00  0.00     0.163 HD
ENDBRANCH   2   7
BRANCH   1  12
HETATM   12  O   UNL     1      54.967  30.829  81.071  1.00  0.00    -0.369 OA
ATOM     13  HO  UNL     1      54.168  31.292  80.852  1.00  0.00     0.212 HD
ENDBRANCH   1  12
BRANCH   3  14
HETATM   14  O   UNL     1      56.491  26.896  83.566  1.00  0.00    -0.391 OA
ATOM     15  HO  UNL     1      56.438  25.959  83.422  1.00  0.00     0.210 HD
ENDBRANCH   3  14
BRANCH   4  16
HETATM   16  O   UNL     1      54.842  28.558  84.961  1.00  0.00    -0.390 OA
ATOM     17  HO  UNL     1      54.198  28.775  85.624  1.00  0.00     0.210 HD
ENDBRANCH   4  16
BRANCH   5  18
HETATM   18  C   UNL     1      51.972  28.713  84.028  1.00  0.00     0.198 C 
BRANCH  18  19
HETATM   19  O   UNL     1      51.857  27.541  84.830  1.00  0.00    -0.398 OA
ATOM     20  HO  UNL     1      51.040  27.126  84.579  1.00  0.00     0.209 HD
ENDBRANCH  18  19
ENDBRANCH   5  18
TORSDOF 6
ENDMDL
MODEL 11
REMARK VINA RESULT:    -4.235      3.016      5.205
REMARK INTER + INTRA:          -5.689
REMARK INTER:                  -5.321
REMARK INTRA:                  -0.368
REMARK UNBOUND:                -0.464
REMARK  6 active torsions:
REMARK  status: ('A' for Active; 'I' for Inactive)
REMARK    1  A    between atoms: C_1  and  O_11 
REMARK    2  A    between atoms: C_2  and  N_9 
REMARK    3  A    between atoms: C_3  and  O_13 
REMARK    4  A    between atoms: C_4  and  O_15 
REMARK    5  A    between atoms: C_5  and  C_6 
REMARK    6  A    between atoms: C_6  and  O_18 
REMARK       I    between atoms: C_7  and  N_9 
ROOT
HETATM    1  C   UNL     1      46.810  17.582  75.151  1.00  0.00     0.282 C 
HETATM    2  C   UNL     1      46.922  17.664  73.626  1.00  0.00     0.170 C 
HETATM    3  C   UNL     1      48.387  17.710  73.199  1.00  0.00     0.177 C 
HETATM    4  C   UNL     1      49.104  18.824  73.940  1.00  0.00     0.180 C 
HETATM    5  C   UNL     1      48.900  18.585  75.426  1.00  0.00     0.179 C 
HETATM    6  O   UNL     1      47.510  18.676  75.733  1.00  0.00    -0.349 OA
ENDROOT
BRANCH   2   7
HETATM    7  N   UNL     1      46.275  16.520  73.013  1.00  0.00    -0.349 N 
HETATM    8  C   UNL     1      45.633  16.589  71.843  1.00  0.00     0.214 C 
HETATM    9  C   UNL     1      45.060  15.281  71.380  1.00  0.00     0.117 C 
HETATM   10  O   UNL     1      45.510  17.620  71.185  1.00  0.00    -0.274 OA
ATOM     11  HN  UNL     1      46.312  15.622  73.496  1.00  0.00     0.163 HD
ENDBRANCH   2   7
BRANCH   1  12
HETATM   12  O   UNL     1      45.452  17.608  75.605  1.00  0.00    -0.369 OA
ATOM     13  HO  UNL     1      45.143  18.506  75.596  1.00  0.00     0.212 HD
ENDBRANCH   1  12
BRANCH   3  14
HETATM   14  O   UNL     1      48.517  17.949  71.798  1.00  0.00    -0.391 OA
ATOM     15  HO  UNL     1      48.855  18.828  71.676  1.00  0.00     0.210 HD
ENDBRANCH   3  14
BRANCH   4  16
HETATM   16  O   UNL     1      48.568  20.084  73.491  1.00  0.00    -0.390 OA
ATOM     17  HO  UNL     1      47.905  19.987  72.818  1.00  0.00     0.210 HD
ENDBRANCH   4  16
BRANCH   5  18
HETATM   18  C   UNL     1      49.676  19.589  76.259  1.00  0.00     0.198 C 
BRANCH  18  19
HETATM   19  O   UNL     1      48.714  20.497  76.788  1.00  0.00    -0.398 OA
ATOM     20  HO  UNL     1      47.892  20.295  76.359  1.00  0.00     0.209 HD
ENDBRANCH  18  19
ENDBRANCH   5  18
TORSDOF 6
ENDMDL
MODEL 12
REMARK VINA RESULT:    -4.174      2.693      3.415
REMARK INTER + INTRA:          -5.614
REMARK INTER:                  -5.128
REMARK INTRA:                  -0.486
REMARK UNBOUND:                -0.464
REMARK  6 active torsions:
REMARK  status: ('A' for Active; 'I' for Inactive)
REMARK    1  A    between atoms: C_1  and  O_11 
REMARK    2  A    between atoms: C_2  and  N_9 
REMARK    3  A    between atoms: C_3  and  O_13 
REMARK    4  A    between atoms: C_4  and  O_15 
REMARK    5  A    between atoms: C_5  and  C_6 
REMARK    6  A    between atoms: C_6  and  O_18 
REMARK       I    between atoms: C_7  and  N_9 
ROOT
HETATM    1  C   UNL     1      48.209  19.043  74.030  1.00  0.00     0.282 C 
HETATM    2  C   UNL     1      49.381  18.126  74.389  1.00  0.00     0.170 C 
HETATM    3  C   UNL     1      49.531  17.018  73.349  1.00  0.00     0.177 C 
HETATM    4  C   UNL     1      48.206  16.300  73.168  1.00  0.00     0.180 C 
HETATM    5  C   UNL     1      47.166  17.348  72.810  1.00  0.00     0.179 C 
HETATM    6  O   UNL     1      47.026  18.264  73.895  1.00  0.00    -0.349 OA
ENDROOT
BRANCH   2   7
HETATM    7  N   UNL     1      50.612  18.888  74.464  1.00  0.00    -0.349 N 
HETATM    8  C   UNL     1      51.051  19.451  75.593  1.00  0.00     0.214 C 
HETATM    9  C   UNL     1      52.360  20.172  75.451  1.00  0.00     0.117 C 
HETATM   10  O   UNL     1      50.454  19.397  76.666  1.00  0.00    -0.274 OA
ATOM     11  HN  UNL     1      51.168  19.000  73.616  1.00  0.00     0.163 HD
ENDBRANCH   2   7
BRANCH   1  12
HETATM   12  O   UNL     1      47.983  20.058  75.015  1.00  0.00    -0.369 OA
ATOM     13  HO  UNL     1      47.343  19.741  75.641  1.00  0.00     0.212 HD
ENDBRANCH   1  12
BRANCH   3  14
HETATM   14  O   UNL     1      50.510  16.057  73.743  1.00  0.00    -0.391 OA
ATOM     15  HO  UNL     1      51.013  16.422  74.461  1.00  0.00     0.210 HD
ENDBRANCH   3  14
BRANCH   4  16
HETATM   16  O   UNL     1      47.902  15.597  74.388  1.00  0.00    -0.390 OA
ATOM     17  HO  UNL     1      47.476  14.761  74.240  1.00  0.00     0.210 HD
ENDBRANCH   4  16
BRANCH   5  18
HETATM   18  C   UNL     1      45.824  16.712  72.499  1.00  0.00     0.198 C 
BRANCH  18  19
HETATM   19  O   UNL     1      45.137  16.601  73.742  1.00  0.00    -0.398 OA
ATOM     20  HO  UNL     1      45.151  17.467  74.132  1.00  0.00     0.209 HD
ENDBRANCH  18  19
ENDBRANCH   5  18
TORSDOF 6
ENDMDL
MODEL 13
REMARK VINA RESULT:    -4.159      1.328      1.368
REMARK INTER + INTRA:          -5.595
REMARK INTER:                  -5.124
REMARK INTRA:                  -0.471
REMARK UNBOUND:                -0.464
REMARK  6 active torsions:
REMARK  status: ('A' for Active; 'I' for Inactive)
REMARK    1  A    between atoms: C_1  and  O_11 
REMARK    2  A    between atoms: C_2  and  N_9 
REMARK    3  A    between atoms: C_3  and  O_13 
REMARK    4  A    between atoms: C_4  and  O_15 
REMARK    5  A    between atoms: C_5  and  C_6 
REMARK    6  A    between atoms: C_6  and  O_18 
REMARK       I    between atoms: C_7  and  N_9 
ROOT
HETATM    1  C   UNL     1      49.360  21.032  73.921  1.00  0.00     0.282 C 
HETATM    2  C   UNL     1      50.759  20.811  74.503  1.00  0.00     0.170 C 
HETATM    3  C   UNL     1      50.947  19.349  74.903  1.00  0.00     0.177 C 
HETATM    4  C   UNL     1      49.812  18.916  75.814  1.00  0.00     0.180 C 
HETATM    5  C   UNL     1      48.511  19.195  75.084  1.00  0.00     0.179 C 
HETATM    6  O   UNL     1      48.385  20.599  74.862  1.00  0.00    -0.349 OA
ENDROOT
BRANCH   2   7
HETATM    7  N   UNL     1      51.771  21.180  73.533  1.00  0.00    -0.349 N 
HETATM    8  C   UNL     1      52.671  22.143  73.753  1.00  0.00     0.214 C 
HETATM    9  C   UNL     1      53.643  22.344  72.626  1.00  0.00     0.117 C 
HETATM   10  O   UNL     1      52.719  22.819  74.778  1.00  0.00    -0.274 OA
ATOM     11  HN  UNL     1      51.798  20.683  72.643  1.00  0.00     0.163 HD
ENDBRANCH   2   7
BRANCH   1  12
HETATM   12  O   UNL     1      49.110  22.404  73.596  1.00  0.00    -0.369 OA
ATOM     13  HO  UNL     1      49.040  22.902  74.402  1.00  0.00     0.212 HD
ENDBRANCH   1  12
BRANCH   3  14
HETATM   14  O   UNL     1      52.178  19.149  75.595  1.00  0.00    -0.391 OA
ATOM     15  HO  UNL     1      52.628  18.414  75.196  1.00  0.00     0.210 HD
ENDBRANCH   3  14
BRANCH   4  16
HETATM   16  O   UNL     1      49.930  19.637  77.056  1.00  0.00    -0.390 OA
ATOM     17  HO  UNL     1      49.244  20.283  77.178  1.00  0.00     0.210 HD
ENDBRANCH   4  16
BRANCH   5  18
HETATM   18  C   UNL     1      47.316  18.692  75.873  1.00  0.00     0.198 C 
BRANCH  18  19
HETATM   19  O   UNL     1      47.186  19.556  76.997  1.00  0.00    -0.398 OA
ATOM     20  HO  UNL     1      46.334  19.968  76.920  1.00  0.00     0.209 HD
ENDBRANCH  18  19
ENDBRANCH   5  18
TORSDOF 6
ENDMDL
MODEL 14
REMARK VINA RESULT:    -4.033      2.001      2.256
REMARK INTER + INTRA:          -5.440
REMARK INTER:                  -4.951
REMARK INTRA:                  -0.489
REMARK UNBOUND:                -0.464
REMARK  6 active torsions:
REMARK  status: ('A' for Active; 'I' for Inactive)
REMARK    1  A    between atoms: C_1  and  O_11 
REMARK    2  A    between atoms: C_2  and  N_9 
REMARK    3  A    between atoms: C_3  and  O_13 
REMARK    4  A    between atoms: C_4  and  O_15 
REMARK    5  A    between atoms: C_5  and  C_6 
REMARK    6  A    between atoms: C_6  and  O_18 
REMARK       I    between atoms: C_7  and  N_9 
ROOT
HETATM    1  C   UNL     1      48.192  19.581  72.242  1.00  0.00     0.282 C 
HETATM    2  C   UNL     1      48.657  20.516  73.362  1.00  0.00     0.170 C 
HETATM    3  C   UNL     1      49.329  19.722  74.479  1.00  0.00     0.177 C 
HETATM    4  C   UNL     1      48.412  18.603  74.938  1.00  0.00     0.180 C 
HETATM    5  C   UNL     1      48.059  17.774  73.715  1.00  0.00     0.179 C 
HETATM    6  O   UNL     1      47.336  18.583  72.788  1.00  0.00    -0.349 OA
ENDROOT
BRANCH   2   7
HETATM    7  N   UNL     1      49.587  21.500  72.841  1.00  0.00    -0.349 N 
HETATM    8  C   UNL     1      49.410  22.816  72.989  1.00  0.00     0.214 C 
HETATM    9  C   UNL     1      50.506  23.653  72.395  1.00  0.00     0.117 C 
HETATM   10  O   UNL     1      48.444  23.321  73.557  1.00  0.00    -0.274 OA
ATOM     11  HN  UNL     1      50.412  21.173  72.340  1.00  0.00     0.163 HD
ENDBRANCH   2   7
BRANCH   1  12
HETATM   12  O   UNL     1      47.491  20.272  71.203  1.00  0.00    -0.369 OA
ATOM     13  HO  UNL     1      47.429  21.191  71.434  1.00  0.00     0.212 HD
ENDBRANCH   1  12
BRANCH   3  14
HETATM   14  O   UNL     1      49.626  20.547  75.604  1.00  0.00    -0.391 OA
ATOM     15  HO  UNL     1      48.856  20.582  76.160  1.00  0.00     0.210 HD
ENDBRANCH   3  14
BRANCH   4  16
HETATM   16  O   UNL     1      47.261  19.193  75.572  1.00  0.00    -0.390 OA
ATOM     17  HO  UNL     1      46.780  19.779  74.999  1.00  0.00     0.210 HD
ENDBRANCH   4  16
BRANCH   5  18
HETATM   18  C   UNL     1      47.230  16.560  74.091  1.00  0.00     0.198 C 
BRANCH  18  19
HETATM   19  O   UNL     1      45.880  17.008  74.174  1.00  0.00    -0.398 OA
ATOM     20  HO  UNL     1      45.340  16.282  73.883  1.00  0.00     0.209 HD
ENDBRANCH  18  19
ENDBRANCH   5  18
TORSDOF 6
ENDMDL
MODEL 15
REMARK VINA RESULT:    -4.009      3.296      6.034
REMARK INTER + INTRA:          -5.411
REMARK INTER:                  -4.984
REMARK INTRA:                  -0.427
REMARK UNBOUND:                -0.464
REMARK  6 active torsions:
REMARK  status: ('A' for Active; 'I' for Inactive)
REMARK    1  A    between atoms: C_1  and  O_11 
REMARK    2  A    between atoms: C_2  and  N_9 
REMARK    3  A    between atoms: C_3  and  O_13 
REMARK    4  A    between atoms: C_4  and  O_15 
REMARK    5  A    between atoms: C_5  and  C_6 
REMARK    6  A    between atoms: C_6  and  O_18 
REMARK       I    between atoms: C_7  and  N_9 
ROOT
HETATM    1  C   UNL     1      50.488  22.893  73.328  1.00  0.00     0.282 C 
HETATM    2  C   UNL     1      48.963  22.767  73.299  1.00  0.00     0.170 C 
HETATM    3  C   UNL     1      48.356  23.815  72.369  1.00  0.00     0.177 C 
HETATM    4  C   UNL     1      48.864  25.194  72.747  1.00  0.00     0.180 C 
HETATM    5  C   UNL     1      50.381  25.144  72.718  1.00  0.00     0.179 C 
HETATM    6  O   UNL     1      50.843  24.220  73.701  1.00  0.00    -0.349 OA
ENDROOT
BRANCH   2   7
HETATM    7  N   UNL     1      48.576  21.442  72.853  1.00  0.00    -0.349 N 
HETATM    8  C   UNL     1      48.457  20.402  73.683  1.00  0.00     0.214 C 
HETATM    9  C   UNL     1      48.021  19.130  73.014  1.00  0.00     0.117 C 
HETATM   10  O   UNL     1      48.678  20.456  74.891  1.00  0.00    -0.274 OA
ATOM     11  HN  UNL     1      48.387  21.298  71.861  1.00  0.00     0.163 HD
ENDBRANCH   2   7
BRANCH   1  12
HETATM   12  O   UNL     1      51.099  21.977  74.243  1.00  0.00    -0.369 OA
ATOM     13  HO  UNL     1      52.041  22.005  74.122  1.00  0.00     0.212 HD
ENDBRANCH   1  12
BRANCH   3  14
HETATM   14  O   UNL     1      46.931  23.825  72.448  1.00  0.00    -0.391 OA
ATOM     15  HO  UNL     1      46.584  23.545  71.609  1.00  0.00     0.210 HD
ENDBRANCH   3  14
BRANCH   4  16
HETATM   16  O   UNL     1      48.335  25.529  74.045  1.00  0.00    -0.390 OA
ATOM     17  HO  UNL     1      48.997  25.541  74.726  1.00  0.00     0.210 HD
ENDBRANCH   4  16
BRANCH   5  18
HETATM   18  C   UNL     1      50.985  26.512  72.976  1.00  0.00     0.198 C 
BRANCH  18  19
HETATM   19  O   UNL     1      51.153  26.615  74.387  1.00  0.00    -0.398 OA
ATOM     20  HO  UNL     1      51.219  27.542  74.581  1.00  0.00     0.209 HD
ENDBRANCH  18  19
ENDBRANCH   5  18
TORSDOF 6
ENDMDL
MODEL 16
REMARK VINA RESULT:    -3.967     11.421     13.166
REMARK INTER + INTRA:          -5.359
REMARK INTER:                  -4.882
REMARK INTRA:                  -0.477
REMARK UNBOUND:                -0.464
REMARK  6 active torsions:
REMARK  status: ('A' for Active; 'I' for Inactive)
REMARK    1  A    between atoms: C_1  and  O_11 
REMARK    2  A    between atoms: C_2  and  N_9 
REMARK    3  A    between atoms: C_3  and  O_13 
REMARK    4  A    between atoms: C_4  and  O_15 
REMARK    5  A    between atoms: C_5  and  C_6 
REMARK    6  A    between atoms: C_6  and  O_18 
REMARK       I    between atoms: C_7  and  N_9 
ROOT
HETATM    1  C   UNL     1      55.752  26.758  81.063  1.00  0.00     0.282 C 
HETATM    2  C   UNL     1      55.504  27.181  82.513  1.00  0.00     0.170 C 
HETATM    3  C   UNL     1      56.722  27.913  83.073  1.00  0.00     0.177 C 
HETATM    4  C   UNL     1      57.967  27.068  82.871  1.00  0.00     0.180 C 
HETATM    5  C   UNL     1      58.063  26.748  81.390  1.00  0.00     0.179 C 
HETATM    6  O   UNL     1      56.934  25.969  81.000  1.00  0.00    -0.349 OA
ENDROOT
BRANCH   2   7
HETATM    7  N   UNL     1      54.342  28.046  82.593  1.00  0.00    -0.349 N 
HETATM    8  C   UNL     1      53.508  28.047  83.637  1.00  0.00     0.214 C 
HETATM    9  C   UNL     1      52.386  29.039  83.524  1.00  0.00     0.117 C 
HETATM   10  O   UNL     1      53.628  27.312  84.615  1.00  0.00    -0.274 OA
ATOM     11  HN  UNL     1      54.153  28.681  81.818  1.00  0.00     0.163 HD
ENDBRANCH   2   7
BRANCH   1  12
HETATM   12  O   UNL     1      54.664  26.004  80.516  1.00  0.00    -0.369 OA
ATOM     13  HO  UNL     1      54.213  26.539  79.873  1.00  0.00     0.212 HD
ENDBRANCH   1  12
BRANCH   3  14
HETATM   14  O   UNL     1      56.581  28.175  84.469  1.00  0.00    -0.391 OA
ATOM     15  HO  UNL     1      57.395  27.945  84.899  1.00  0.00     0.210 HD
ENDBRANCH   3  14
BRANCH   4  16
HETATM   16  O   UNL     1      57.854  25.893  83.697  1.00  0.00    -0.390 OA
ATOM     17  HO  UNL     1      58.118  25.097  83.250  1.00  0.00     0.210 HD
ENDBRANCH   4  16
BRANCH   5  18
HETATM   18  C   UNL     1      59.342  25.996  81.069  1.00  0.00     0.198 C 
BRANCH  18  19
HETATM   19  O   UNL     1      59.149  24.664  81.535  1.00  0.00    -0.398 OA
ATOM     20  HO  UNL     1      58.212  24.554  81.647  1.00  0.00     0.209 HD
ENDBRANCH  18  19
ENDBRANCH   5  18
TORSDOF 6
ENDMDL
MODEL 17
REMARK VINA RESULT:    -3.767      6.194      7.401
REMARK INTER + INTRA:          -5.111
REMARK INTER:                  -4.649
REMARK INTRA:                  -0.463
REMARK UNBOUND:                -0.464
REMARK  6 active torsions:
REMARK  status: ('A' for Active; 'I' for Inactive)
REMARK    1  A    between atoms: C_1  and  O_11 
REMARK    2  A    between atoms: C_2  and  N_9 
REMARK    3  A    between atoms: C_3  and  O_13 
REMARK    4  A    between atoms: C_4  and  O_15 
REMARK    5  A    between atoms: C_5  and  C_6 
REMARK    6  A    between atoms: C_6  and  O_18 
REMARK       I    between atoms: C_7  and  N_9 
ROOT
HETATM    1  C   UNL     1      48.548  26.474  70.810  1.00  0.00     0.282 C 
HETATM    2  C   UNL     1      48.280  26.530  72.316  1.00  0.00     0.170 C 
HETATM    3  C   UNL     1      48.763  25.249  72.993  1.00  0.00     0.177 C 
HETATM    4  C   UNL     1      48.166  24.041  72.294  1.00  0.00     0.180 C 
HETATM    5  C   UNL     1      48.531  24.140  70.824  1.00  0.00     0.179 C 
HETATM    6  O   UNL     1      47.936  25.310  70.266  1.00  0.00    -0.349 OA
ENDROOT
BRANCH   2   7
HETATM    7  N   UNL     1      48.954  27.671  72.904  1.00  0.00    -0.349 N 
HETATM    8  C   UNL     1      48.360  28.855  73.078  1.00  0.00     0.214 C 
HETATM    9  C   UNL     1      49.233  29.890  73.728  1.00  0.00     0.117 C 
HETATM   10  O   UNL     1      47.203  29.101  72.743  1.00  0.00    -0.274 OA
ATOM     11  HN  UNL     1      49.925  27.565  73.199  1.00  0.00     0.163 HD
ENDBRANCH   2   7
BRANCH   1  12
HETATM   12  O   UNL     1      48.047  27.624  70.119  1.00  0.00    -0.369 OA
ATOM     13  HO  UNL     1      47.675  28.225  70.754  1.00  0.00     0.212 HD
ENDBRANCH   1  12
BRANCH   3  14
HETATM   14  O   UNL     1      48.382  25.206  74.367  1.00  0.00    -0.391 OA
ATOM     15  HO  UNL     1      47.662  25.812  74.496  1.00  0.00     0.210 HD
ENDBRANCH   3  14
BRANCH   4  16
HETATM   16  O   UNL     1      46.743  24.045  72.525  1.00  0.00    -0.390 OA
ATOM     17  HO  UNL     1      46.402  23.189  72.758  1.00  0.00     0.210 HD
ENDBRANCH   4  16
BRANCH   5  18
HETATM   18  C   UNL     1      48.070  22.914  70.057  1.00  0.00     0.198 C 
BRANCH  18  19
HETATM   19  O   UNL     1      46.646  22.958  70.051  1.00  0.00    -0.398 OA
ATOM     20  HO  UNL     1      46.363  22.542  70.857  1.00  0.00     0.209 HD
ENDBRANCH  18  19
ENDBRANCH   5  18
TORSDOF 6
ENDMDL
MODEL 18
REMARK VINA RESULT:    -3.711     13.292     13.686
REMARK INTER + INTRA:          -5.043
REMARK INTER:                  -4.543
REMARK INTRA:                  -0.500
REMARK UNBOUND:                -0.464
REMARK  6 active torsions:
REMARK  status: ('A' for Active; 'I' for Inactive)
REMARK    1  A    between atoms: C_1  and  O_11 
REMARK    2  A    between atoms: C_2  and  N_9 
REMARK    3  A    between atoms: C_3  and  O_13 
REMARK    4  A    between atoms: C_4  and  O_15 
REMARK    5  A    between atoms: C_5  and  C_6 
REMARK    6  A    between atoms: C_6  and  O_18 
REMARK       I    between atoms: C_7  and  N_9 
ROOT
HETATM    1  C   UNL     1      39.289  10.833  74.499  1.00  0.00     0.282 C 
HETATM    2  C   UNL     1      40.069  10.332  75.717  1.00  0.00     0.170 C 
HETATM    3  C   UNL     1      39.201  10.394  76.972  1.00  0.00     0.177 C 
HETATM    4  C   UNL     1      38.623  11.788  77.128  1.00  0.00     0.180 C 
HETATM    5  C   UNL     1      37.881  12.120  75.845  1.00  0.00     0.179 C 
HETATM    6  O   UNL     1      38.805  12.146  74.759  1.00  0.00    -0.349 OA
ENDROOT
BRANCH   2   7
HETATM    7  N   UNL     1      40.513   8.968  75.503  1.00  0.00    -0.349 N 
HETATM    8  C   UNL     1      41.803   8.623  75.459  1.00  0.00     0.214 C 
HETATM    9  C   UNL     1      42.038   7.154  75.254  1.00  0.00     0.117 C 
HETATM   10  O   UNL     1      42.734   9.418  75.575  1.00  0.00    -0.274 OA
ATOM     11  HN  UNL     1      39.810   8.240  75.381  1.00  0.00     0.163 HD
ENDBRANCH   2   7
BRANCH   1  12
HETATM   12  O   UNL     1      40.085  10.862  73.309  1.00  0.00    -0.369 OA
ATOM     13  HO  UNL     1      40.403   9.985  73.132  1.00  0.00     0.212 HD
ENDBRANCH   1  12
BRANCH   3  14
HETATM   14  O   UNL     1      39.952  10.086  78.145  1.00  0.00    -0.391 OA
ATOM     15  HO  UNL     1      39.385   9.621  78.748  1.00  0.00     0.210 HD
ENDBRANCH   3  14
BRANCH   4  16
HETATM   16  O   UNL     1      39.705  12.698  77.406  1.00  0.00    -0.390 OA
ATOM     17  HO  UNL     1      39.468  13.609  77.282  1.00  0.00     0.210 HD
ENDBRANCH   4  16
BRANCH   5  18
HETATM   18  C   UNL     1      37.171  13.457  75.947  1.00  0.00     0.198 C 
BRANCH  18  19
HETATM   19  O   UNL     1      38.127  14.447  75.580  1.00  0.00    -0.398 OA
ATOM     20  HO  UNL     1      38.474  14.796  76.392  1.00  0.00     0.209 HD
ENDBRANCH  18  19
ENDBRANCH   5  18
TORSDOF 6
ENDMDL
MODEL 19
REMARK VINA RESULT:    -3.650      3.823      5.650
REMARK INTER + INTRA:          -4.968
REMARK INTER:                  -4.456
REMARK INTRA:                  -0.511
REMARK UNBOUND:                -0.464
REMARK  6 active torsions:
REMARK  status: ('A' for Active; 'I' for Inactive)
REMARK    1  A    between atoms: C_1  and  O_11 
REMARK    2  A    between atoms: C_2  and  N_9 
REMARK    3  A    between atoms: C_3  and  O_13 
REMARK    4  A    between atoms: C_4  and  O_15 
REMARK    5  A    between atoms: C_5  and  C_6 
REMARK    6  A    between atoms: C_6  and  O_18 
REMARK       I    between atoms: C_7  and  N_9 
ROOT
HETATM    1  C   UNL     1      47.958  18.019  72.199  1.00  0.00     0.282 C 
HETATM    2  C   UNL     1      47.779  17.086  73.400  1.00  0.00     0.170 C 
HETATM    3  C   UNL     1      48.489  15.757  73.156  1.00  0.00     0.177 C 
HETATM    4  C   UNL     1      48.036  15.168  71.832  1.00  0.00     0.180 C 
HETATM    5  C   UNL     1      48.290  16.212  70.759  1.00  0.00     0.179 C 
HETATM    6  O   UNL     1      47.493  17.365  71.023  1.00  0.00    -0.349 OA
ENDROOT
BRANCH   2   7
HETATM    7  N   UNL     1      48.311  17.704  74.599  1.00  0.00    -0.349 N 
HETATM    8  C   UNL     1      47.548  18.369  75.472  1.00  0.00     0.214 C 
HETATM    9  C   UNL     1      48.299  18.907  76.657  1.00  0.00     0.117 C 
HETATM   10  O   UNL     1      46.338  18.539  75.340  1.00  0.00    -0.274 OA
ATOM     11  HN  UNL     1      49.310  17.628  74.785  1.00  0.00     0.163 HD
ENDBRANCH   2   7
BRANCH   1  12
HETATM   12  O   UNL     1      47.248  19.253  72.351  1.00  0.00    -0.369 OA
ATOM     13  HO  UNL     1      47.811  19.966  72.072  1.00  0.00     0.212 HD
ENDBRANCH   1  12
BRANCH   3  14
HETATM   14  O   UNL     1      48.204  14.812  74.187  1.00  0.00    -0.391 OA
ATOM     15  HO  UNL     1      48.919  14.830  74.813  1.00  0.00     0.210 HD
ENDBRANCH   3  14
BRANCH   4  16
HETATM   16  O   UNL     1      46.646  14.806  71.951  1.00  0.00    -0.390 OA
ATOM     17  HO  UNL     1      46.057  15.490  71.654  1.00  0.00     0.210 HD
ENDBRANCH   4  16
BRANCH   5  18
HETATM   18  C   UNL     1      47.970  15.673  69.377  1.00  0.00     0.198 C 
BRANCH  18  19
HETATM   19  O   UNL     1      46.569  15.854  69.191  1.00  0.00    -0.398 OA
ATOM     20  HO  UNL     1      46.164  15.017  69.385  1.00  0.00     0.209 HD
ENDBRANCH  18  19
ENDBRANCH   5  18
TORSDOF 6
ENDMDL
MODEL 20
REMARK VINA RESULT:    -3.608     12.294     13.469
REMARK INTER + INTRA:          -4.916
REMARK INTER:                  -4.443
REMARK INTRA:                  -0.473
REMARK UNBOUND:                -0.464
REMARK  6 active torsions:
REMARK  status: ('A' for Active; 'I' for Inactive)
REMARK    1  A    between atoms: C_1  and  O_11 
REMARK    2  A    between atoms: C_2  and  N_9 
REMARK    3  A    between atoms: C_3  and  O_13 
REMARK    4  A    between atoms: C_4  and  O_15 
REMARK    5  A    between atoms: C_5  and  C_6 
REMARK    6  A    between atoms: C_6  and  O_18 
REMARK       I    between atoms: C_7  and  N_9 
ROOT
HETATM    1  C   UNL     1      56.315  28.622  83.625  1.00  0.00     0.282 C 
HETATM    2  C   UNL     1      56.467  28.664  82.102  1.00  0.00     0.170 C 
HETATM    3  C   UNL     1      55.351  29.497  81.476  1.00  0.00     0.177 C 
HETATM    4  C   UNL     1      54.002  28.995  81.958  1.00  0.00     0.180 C 
HETATM    5  C   UNL     1      54.021  29.026  83.476  1.00  0.00     0.179 C 
HETATM    6  O   UNL     1      55.021  28.129  83.955  1.00  0.00    -0.349 OA
ENDROOT
BRANCH   2   7
HETATM    7  N   UNL     1      57.752  29.229  81.740  1.00  0.00    -0.349 N 
HETATM    8  C   UNL     1      58.825  28.479  81.469  1.00  0.00     0.214 C 
HETATM    9  C   UNL     1      60.046  29.268  81.092  1.00  0.00     0.117 C 
HETATM   10  O   UNL     1      58.836  27.251  81.517  1.00  0.00    -0.274 OA
ATOM     11  HN  UNL     1      57.843  30.243  81.690  1.00  0.00     0.163 HD
ENDBRANCH   2   7
BRANCH   1  12
HETATM   12  O   UNL     1      57.299  27.792  84.253  1.00  0.00    -0.369 OA
ATOM     13  HO  UNL     1      56.948  27.468  85.074  1.00  0.00     0.212 HD
ENDBRANCH   1  12
BRANCH   3  14
HETATM   14  O   UNL     1      55.374  29.419  80.051  1.00  0.00    -0.391 OA
ATOM     15  HO  UNL     1      56.124  29.911  79.739  1.00  0.00     0.210 HD
ENDBRANCH   3  14
BRANCH   4  16
HETATM   16  O   UNL     1      53.795  27.673  81.423  1.00  0.00    -0.390 OA
ATOM     17  HO  UNL     1      53.687  27.011  82.096  1.00  0.00     0.210 HD
ENDBRANCH   4  16
BRANCH   5  18
HETATM   18  C   UNL     1      52.670  28.644  84.053  1.00  0.00     0.198 C 
BRANCH  18  19
HETATM   19  O   UNL     1      52.750  27.259  84.374  1.00  0.00    -0.398 OA
ATOM     20  HO  UNL     1      53.188  26.841  83.642  1.00  0.00     0.209 HD
ENDBRANCH  18  19
ENDBRANCH   5  18
TORSDOF 6
ENDMDL
