REMARK  10 active torsions:
REMARK  status: ('A' for Active; 'I' for Inactive)
REMARK    1  A    between atoms: C_1  and  CA_2 
REMARK    2  A    between atoms: C_1  and  OXT_9 
REMARK    3  A    between atoms: CA_2  and  C_3 
REMARK    4  A    between atoms: CA_2  and  N_12 
REMARK    5  A    between atoms: C_3  and  C_4 
REMARK    6  A    between atoms: C_4  and  C_5 
REMARK    7  A    between atoms: C_5  and  CA_6 
REMARK    8  A    between atoms: CA_6  and  C_7 
REMARK    9  A    between atoms: CA_6  and  N_13 
REMARK   10  A    between atoms: C_7  and  OXT_11 
ROOT
HETATM    1  C   UNL     1       0.040  -0.033  -0.239  1.00  0.00     0.005 C 
ENDROOT
BRANCH   1   2
HETATM    2  C   UNL     1      -0.106  -0.571  -1.672  1.00  0.00     0.046 C 
BRANCH   2   3
HETATM    3  CA  UNL     1      -0.641  -2.020  -1.699  1.00  0.00     0.314 C 
BRANCH   3   4
HETATM    4  C   UNL     1      -2.053  -2.095  -1.188  1.00  0.00     0.173 C 
HETATM    5  O   UNL     1      -2.992  -1.547  -1.827  1.00  0.00    -0.648 OA
BRANCH   4   6
HETATM    6  OXT UNL     1      -2.322  -2.757   0.006  1.00  0.00    -0.775 OA
HETATM    7  HXT UNL     1      -3.266  -2.810   0.370  1.00  0.00     0.167 HD
ENDBRANCH   4   6
ENDBRANCH   3   4
BRANCH   3   8
HETATM    8  N   UNL     1      -0.582  -2.575  -3.053  1.00  0.00     0.093 N 
HETATM    9  H1  UNL     1       0.420  -2.648  -3.342  1.00  0.00     0.314 HD
HETATM   10  H2  UNL     1      -1.050  -1.918  -3.720  1.00  0.00     0.314 HD
ENDBRANCH   3   8
ENDBRANCH   2   3
ENDBRANCH   1   2
BRANCH   1  11
HETATM   11  C   UNL     1       0.612   1.396  -0.247  1.00  0.00     0.046 C 
BRANCH  11  12
HETATM   12  CA  UNL     1       0.885   1.983   1.159  1.00  0.00     0.314 C 
BRANCH  12  13
HETATM   13  C   UNL     1       1.931   1.195   1.902  1.00  0.00     0.173 C 
HETATM   14  O   UNL     1       1.600   0.285   2.709  1.00  0.00    -0.648 OA
BRANCH  13  15
HETATM   15  OXT UNL     1       3.278   1.446   1.660  1.00  0.00    -0.775 OA
HETATM   16  HXT UNL     1       3.999   0.916   2.135  1.00  0.00     0.167 HD
ENDBRANCH  13  15
ENDBRANCH  12  13
BRANCH  12  17
HETATM   17  N   UNL     1      -0.338   2.125   1.956  1.00  0.00     0.093 N 
HETATM   18  H1  UNL     1      -0.760   1.188   2.147  1.00  0.00     0.314 HD
HETATM   19  H2  UNL     1      -1.036   2.682   1.411  1.00  0.00     0.314 HD
ENDBRANCH  12  17
ENDBRANCH  11  12
ENDBRANCH   1  11
TORSDOF 10
