MODEL 1
REMARK VINA RESULT:   -10.550      0.000      0.000
REMARK INTER + INTRA:         -14.889
REMARK INTER:                 -14.251
REMARK INTRA:                  -0.638
REMARK UNBOUND:                -0.638
REMARK  6 active torsions:
REMARK  status: ('A' for Active; 'I' for Inactive)
REMARK    1  A    between atoms: N_1  and  C_32 
REMARK    2  A    between atoms: N_1  and  C_33 
REMARK    3  A    between atoms: C_6  and  C_9 
REMARK    4  A    between atoms: C_7  and  C_8 
REMARK       I    between atoms: C_8  and  N_28 
REMARK    5  A    between atoms: C_12  and  C_17 
REMARK       I    between atoms: C_17  and  N_21 
REMARK    6  A    between atoms: N_21  and  C_23 
ROOT
HETATM    1  N   UNL     1     -31.037   4.441 -21.966  1.00  0.00    -0.347 N 
ATOM      2  HN  UNL     1     -30.023   4.345 -22.030  1.00  0.00     0.166 HD
HETATM    3  C   UNL     1     -33.028   4.667 -20.699  1.00  0.00     0.119 A 
HETATM    4  C   UNL     1     -31.648   4.491 -20.775  1.00  0.00     0.054 A 
HETATM    5  C   UNL     1     -31.790   4.519 -23.068  1.00  0.00     0.145 A 
HETATM    6  N   UNL     1     -33.800   4.741 -21.795  1.00  0.00    -0.348 N 
ATOM      7  HN  UNL     1     -34.810   4.862 -21.722  1.00  0.00     0.167 HD
HETATM    8  C   UNL     1     -33.193   4.650 -22.992  1.00  0.00     0.138 A 
ENDROOT
BRANCH   4   9
HETATM    9  C   UNL     1     -30.828   4.292 -19.573  1.00  0.00    -0.032 C 
HETATM   10  C   UNL     1     -31.337   4.496 -18.324  1.00  0.00    -0.017 C 
HETATM   11  C   UNL     1     -30.525   4.407 -17.064  1.00  0.00     0.030 C 
HETATM   12  C   UNL     1     -29.207   3.674 -17.296  1.00  0.00     0.029 C 
HETATM   13  C   UNL     1     -28.521   4.170 -18.561  1.00  0.00     0.089 C 
HETATM   14  C   UNL     1     -29.391   3.865 -19.780  1.00  0.00     0.065 C 
BRANCH  13  15
HETATM   15  N   UNL     1     -27.221   3.526 -18.721  1.00  0.00    -0.352 N 
HETATM   16  C   UNL     1     -26.084   4.101 -18.311  1.00  0.00     0.252 C 
HETATM   17  O   UNL     1     -26.070   5.183 -17.729  1.00  0.00    -0.268 OA
ATOM     18  HN  UNL     1     -27.178   2.607 -19.160  1.00  0.00     0.163 HD
BRANCH  16  19
HETATM   19  C   UNL     1     -24.823   3.348 -18.576  1.00  0.00     0.032 A 
HETATM   20  C   UNL     1     -24.552   2.806 -19.832  1.00  0.00     0.017 A 
HETATM   21  C   UNL     1     -23.411   2.049 -20.034  1.00  0.00     0.001 A 
HETATM   22  C   UNL     1     -22.533   1.821 -18.996  1.00  0.00     0.000 A 
HETATM   23  C   UNL     1     -22.783   2.370 -17.754  1.00  0.00     0.001 A 
HETATM   24  C   UNL     1     -23.915   3.137 -17.543  1.00  0.00     0.017 A 
ENDBRANCH  16  19
ENDBRANCH  13  15
ENDBRANCH   4   9
BRANCH   5  25
HETATM   25  C   UNL     1     -31.030   4.451 -24.375  1.00  0.00     0.269 C 
HETATM   26  N   UNL     1     -29.851   3.820 -24.337  1.00  0.00    -0.365 N 
ATOM     27  HN2 UNL     1     -29.463   3.428 -23.479  1.00  0.00     0.159 HD
ATOM     28  HN1 UNL     1     -29.339   3.774 -25.218  1.00  0.00     0.159 HD
HETATM   29  O   UNL     1     -31.506   4.932 -25.428  1.00  0.00    -0.266 OA
ENDBRANCH   5  25
BRANCH   8  30
HETATM   30  N   UNL     1     -34.004   4.636 -24.133  1.00  0.00    -0.338 N 
ATOM     31  HN  UNL     1     -33.527   4.763 -25.026  1.00  0.00     0.167 HD
BRANCH  30  32
HETATM   32  C   UNL     1     -35.395   4.467 -24.196  1.00  0.00     0.068 A 
HETATM   33  C   UNL     1     -36.347   4.322 -23.232  1.00  0.00     0.140 A 
HETATM   34  N   UNL     1     -37.527   4.317 -23.860  1.00  0.00    -0.306 N 
HETATM   35  N   UNL     1     -37.387   4.449 -25.222  1.00  0.00    -0.308 N 
HETATM   36  C   UNL     1     -38.850   4.173 -23.268  1.00  0.00     0.177 C 
HETATM   37  C   UNL     1     -36.080   4.531 -25.415  1.00  0.00     0.138 A 
ATOM     38  HN  UNL     1     -38.125   4.477 -25.926  1.00  0.00     0.186 HD
ENDBRANCH  30  32
ENDBRANCH   8  30
TORSDOF 6
ENDMDL
MODEL 2
REMARK VINA RESULT:   -10.134      0.935      1.193
REMARK INTER + INTRA:         -14.327
REMARK INTER:                 -13.688
REMARK INTRA:                  -0.639
REMARK UNBOUND:                -0.638
REMARK  6 active torsions:
REMARK  status: ('A' for Active; 'I' for Inactive)
REMARK    1  A    between atoms: N_1  and  C_32 
REMARK    2  A    between atoms: N_1  and  C_33 
REMARK    3  A    between atoms: C_6  and  C_9 
REMARK    4  A    between atoms: C_7  and  C_8 
REMARK       I    between atoms: C_8  and  N_28 
REMARK    5  A    between atoms: C_12  and  C_17 
REMARK       I    between atoms: C_17  and  N_21 
REMARK    6  A    between atoms: N_21  and  C_23 
ROOT
HETATM    1  N   UNL     1     -30.747   4.416 -21.456  1.00  0.00    -0.347 N 
ATOM      2  HN  UNL     1     -29.754   4.296 -21.658  1.00  0.00     0.166 HD
HETATM    3  C   UNL     1     -32.538   4.713 -19.933  1.00  0.00     0.119 A 
HETATM    4  C   UNL     1     -31.187   4.504 -20.194  1.00  0.00     0.054 A 
HETATM    5  C   UNL     1     -31.644   4.488 -22.446  1.00  0.00     0.145 A 
HETATM    6  N   UNL     1     -33.453   4.781 -20.912  1.00  0.00    -0.348 N 
ATOM      7  HN  UNL     1     -34.441   4.925 -20.703  1.00  0.00     0.167 HD
HETATM    8  C   UNL     1     -33.020   4.652 -22.180  1.00  0.00     0.138 A 
ENDROOT
BRANCH   4   9
HETATM    9  C   UNL     1     -30.211   4.312 -19.113  1.00  0.00    -0.032 C 
HETATM   10  C   UNL     1     -30.563   4.467 -17.804  1.00  0.00    -0.017 C 
HETATM   11  C   UNL     1     -29.592   4.383 -16.661  1.00  0.00     0.030 C 
HETATM   12  C   UNL     1     -28.288   3.710 -17.080  1.00  0.00     0.029 C 
HETATM   13  C   UNL     1     -27.790   4.262 -18.408  1.00  0.00     0.089 C 
HETATM   14  C   UNL     1     -28.798   3.949 -19.514  1.00  0.00     0.065 C 
BRANCH  13  15
HETATM   15  N   UNL     1     -26.498   3.676 -18.750  1.00  0.00    -0.352 N 
HETATM   16  C   UNL     1     -25.340   4.220 -18.357  1.00  0.00     0.252 C 
HETATM   17  O   UNL     1     -25.295   5.217 -17.641  1.00  0.00    -0.268 OA
ATOM     18  HN  UNL     1     -26.478   2.822 -19.308  1.00  0.00     0.163 HD
BRANCH  16  19
HETATM   19  C   UNL     1     -24.094   3.539 -18.815  1.00  0.00     0.032 A 
HETATM   20  C   UNL     1     -23.494   3.864 -20.031  1.00  0.00     0.017 A 
HETATM   21  C   UNL     1     -22.381   3.167 -20.468  1.00  0.00     0.001 A 
HETATM   22  C   UNL     1     -21.857   2.144 -19.709  1.00  0.00     0.000 A 
HETATM   23  C   UNL     1     -22.433   1.826 -18.495  1.00  0.00     0.001 A 
HETATM   24  C   UNL     1     -23.539   2.523 -18.043  1.00  0.00     0.017 A 
ENDBRANCH  16  19
ENDBRANCH  13  15
ENDBRANCH   4   9
BRANCH   5  25
HETATM   25  C   UNL     1     -31.074   4.376 -23.843  1.00  0.00     0.269 C 
HETATM   26  N   UNL     1     -29.766   4.109 -23.925  1.00  0.00    -0.365 N 
ATOM     27  HN2 UNL     1     -29.171   4.012 -23.102  1.00  0.00     0.159 HD
ATOM     28  HN1 UNL     1     -29.382   4.033 -24.866  1.00  0.00     0.159 HD
HETATM   29  O   UNL     1     -31.804   4.495 -24.853  1.00  0.00    -0.266 OA
ENDBRANCH   5  25
BRANCH   8  30
HETATM   30  N   UNL     1     -33.982   4.632 -23.197  1.00  0.00    -0.338 N 
ATOM     31  HN  UNL     1     -33.649   4.852 -24.135  1.00  0.00     0.167 HD
BRANCH  30  32
HETATM   32  C   UNL     1     -35.350   4.346 -23.080  1.00  0.00     0.068 A 
HETATM   33  C   UNL     1     -36.445   4.806 -23.748  1.00  0.00     0.140 A 
HETATM   34  N   UNL     1     -37.488   4.101 -23.299  1.00  0.00    -0.306 N 
HETATM   35  N   UNL     1     -37.119   3.184 -22.343  1.00  0.00    -0.308 N 
HETATM   36  C   UNL     1     -38.885   4.228 -23.695  1.00  0.00     0.177 C 
HETATM   37  C   UNL     1     -35.812   3.350 -22.212  1.00  0.00     0.138 A 
ATOM     38  HN  UNL     1     -37.717   2.524 -21.846  1.00  0.00     0.186 HD
ENDBRANCH  30  32
ENDBRANCH   8  30
TORSDOF 6
ENDMDL
MODEL 3
REMARK VINA RESULT:    -9.835      2.241      3.167
REMARK INTER + INTRA:         -13.923
REMARK INTER:                 -13.357
REMARK INTRA:                  -0.566
REMARK UNBOUND:                -0.638
REMARK  6 active torsions:
REMARK  status: ('A' for Active; 'I' for Inactive)
REMARK    1  A    between atoms: N_1  and  C_32 
REMARK    2  A    between atoms: N_1  and  C_33 
REMARK    3  A    between atoms: C_6  and  C_9 
REMARK    4  A    between atoms: C_7  and  C_8 
REMARK       I    between atoms: C_8  and  N_28 
REMARK    5  A    between atoms: C_12  and  C_17 
REMARK       I    between atoms: C_17  and  N_21 
REMARK    6  A    between atoms: N_21  and  C_23 
ROOT
HETATM    1  N   UNL     1     -32.454   3.148 -18.650  1.00  0.00    -0.347 N 
ATOM      2  HN  UNL     1     -32.363   2.495 -17.871  1.00  0.00     0.166 HD
HETATM    3  C   UNL     1     -31.565   4.819 -20.077  1.00  0.00     0.119 A 
HETATM    4  C   UNL     1     -31.446   3.964 -18.984  1.00  0.00     0.054 A 
HETATM    5  C   UNL     1     -33.583   3.211 -19.363  1.00  0.00     0.145 A 
HETATM    6  N   UNL     1     -32.693   4.900 -20.800  1.00  0.00    -0.348 N 
ATOM      7  HN  UNL     1     -32.767   5.538 -21.593  1.00  0.00     0.167 HD
HETATM    8  C   UNL     1     -33.722   4.111 -20.442  1.00  0.00     0.138 A 
ENDROOT
BRANCH   4   9
HETATM    9  C   UNL     1     -30.253   3.967 -18.128  1.00  0.00    -0.032 C 
HETATM   10  C   UNL     1     -30.336   4.249 -16.796  1.00  0.00    -0.017 C 
HETATM   11  C   UNL     1     -29.144   4.365 -15.888  1.00  0.00     0.030 C 
HETATM   12  C   UNL     1     -27.901   3.738 -16.512  1.00  0.00     0.029 C 
HETATM   13  C   UNL     1     -27.744   4.165 -17.965  1.00  0.00     0.089 C 
HETATM   14  C   UNL     1     -28.927   3.657 -18.788  1.00  0.00     0.065 C 
BRANCH  13  15
HETATM   15  N   UNL     1     -26.504   3.632 -18.520  1.00  0.00    -0.352 N 
HETATM   16  C   UNL     1     -25.315   4.206 -18.296  1.00  0.00     0.252 C 
HETATM   17  O   UNL     1     -25.189   5.187 -17.566  1.00  0.00    -0.268 OA
ATOM     18  HN  UNL     1     -26.544   2.793 -19.099  1.00  0.00     0.163 HD
BRANCH  16  19
HETATM   19  C   UNL     1     -24.135   3.580 -18.961  1.00  0.00     0.032 A 
HETATM   20  C   UNL     1     -23.539   2.430 -18.446  1.00  0.00     0.017 A 
HETATM   21  C   UNL     1     -22.401   1.909 -19.039  1.00  0.00     0.001 A 
HETATM   22  C   UNL     1     -21.845   2.525 -20.139  1.00  0.00     0.000 A 
HETATM   23  C   UNL     1     -22.439   3.653 -20.667  1.00  0.00     0.001 A 
HETATM   24  C   UNL     1     -23.583   4.176 -20.089  1.00  0.00     0.017 A 
ENDBRANCH  16  19
ENDBRANCH  13  15
ENDBRANCH   4   9
BRANCH   5  25
HETATM   25  C   UNL     1     -34.678   2.263 -18.924  1.00  0.00     0.269 C 
HETATM   26  N   UNL     1     -34.283   1.040 -18.555  1.00  0.00    -0.365 N 
ATOM     27  HN2 UNL     1     -33.309   0.741 -18.589  1.00  0.00     0.159 HD
ATOM     28  HN1 UNL     1     -35.021   0.401 -18.259  1.00  0.00     0.159 HD
HETATM   29  O   UNL     1     -35.875   2.629 -18.882  1.00  0.00    -0.266 OA
ENDBRANCH   5  25
BRANCH   8  30
HETATM   30  N   UNL     1     -34.928   4.259 -21.137  1.00  0.00    -0.338 N 
ATOM     31  HN  UNL     1     -35.764   4.382 -20.566  1.00  0.00     0.167 HD
BRANCH  30  32
HETATM   32  C   UNL     1     -35.125   4.259 -22.525  1.00  0.00     0.068 A 
HETATM   33  C   UNL     1     -36.245   4.371 -23.294  1.00  0.00     0.140 A 
HETATM   34  N   UNL     1     -35.829   4.425 -24.564  1.00  0.00    -0.306 N 
HETATM   35  N   UNL     1     -34.460   4.345 -24.663  1.00  0.00    -0.308 N 
HETATM   36  C   UNL     1     -36.649   4.533 -25.764  1.00  0.00     0.177 C 
HETATM   37  C   UNL     1     -34.043   4.234 -23.412  1.00  0.00     0.138 A 
ATOM     38  HN  UNL     1     -33.894   4.365 -25.511  1.00  0.00     0.186 HD
ENDBRANCH  30  32
ENDBRANCH   8  30
TORSDOF 6
ENDMDL
MODEL 4
REMARK VINA RESULT:    -9.613      1.838      2.510
REMARK INTER + INTRA:         -13.623
REMARK INTER:                 -12.602
REMARK INTRA:                  -1.021
REMARK UNBOUND:                -0.638
REMARK  6 active torsions:
REMARK  status: ('A' for Active; 'I' for Inactive)
REMARK    1  A    between atoms: N_1  and  C_32 
REMARK    2  A    between atoms: N_1  and  C_33 
REMARK    3  A    between atoms: C_6  and  C_9 
REMARK    4  A    between atoms: C_7  and  C_8 
REMARK       I    between atoms: C_8  and  N_28 
REMARK    5  A    between atoms: C_12  and  C_17 
REMARK       I    between atoms: C_17  and  N_21 
REMARK    6  A    between atoms: N_21  and  C_23 
ROOT
HETATM    1  N   UNL     1     -31.637   4.210 -19.892  1.00  0.00    -0.347 N 
ATOM      2  HN  UNL     1     -30.842   4.792 -20.157  1.00  0.00     0.166 HD
HETATM    3  C   UNL     1     -32.802   2.871 -18.322  1.00  0.00     0.119 A 
HETATM    4  C   UNL     1     -31.691   3.626 -18.688  1.00  0.00     0.054 A 
HETATM    5  C   UNL     1     -32.652   4.011 -20.739  1.00  0.00     0.145 A 
HETATM    6  N   UNL     1     -33.827   2.655 -19.161  1.00  0.00    -0.348 N 
ATOM      7  HN  UNL     1     -34.630   2.092 -18.880  1.00  0.00     0.167 HD
HETATM    8  C   UNL     1     -33.757   3.207 -20.386  1.00  0.00     0.138 A 
ENDROOT
BRANCH   4   9
HETATM    9  C   UNL     1     -30.522   3.759 -17.808  1.00  0.00    -0.032 C 
HETATM   10  C   UNL     1     -30.648   4.206 -16.525  1.00  0.00    -0.017 C 
HETATM   11  C   UNL     1     -29.484   4.457 -15.609  1.00  0.00     0.030 C 
HETATM   12  C   UNL     1     -28.214   3.779 -16.115  1.00  0.00     0.029 C 
HETATM   13  C   UNL     1     -28.022   4.021 -17.605  1.00  0.00     0.089 C 
HETATM   14  C   UNL     1     -29.175   3.391 -18.389  1.00  0.00     0.065 C 
BRANCH  13  15
HETATM   15  N   UNL     1     -26.759   3.444 -18.056  1.00  0.00    -0.352 N 
HETATM   16  C   UNL     1     -25.627   4.156 -18.107  1.00  0.00     0.252 C 
HETATM   17  O   UNL     1     -25.570   5.324 -17.730  1.00  0.00    -0.268 OA
ATOM     18  HN  UNL     1     -26.739   2.465 -18.341  1.00  0.00     0.163 HD
BRANCH  16  19
HETATM   19  C   UNL     1     -24.419   3.452 -18.628  1.00  0.00     0.032 A 
HETATM   20  C   UNL     1     -23.514   2.832 -17.768  1.00  0.00     0.017 A 
HETATM   21  C   UNL     1     -22.363   2.248 -18.269  1.00  0.00     0.001 A 
HETATM   22  C   UNL     1     -22.098   2.278 -19.621  1.00  0.00     0.000 A 
HETATM   23  C   UNL     1     -22.997   2.874 -20.483  1.00  0.00     0.001 A 
HETATM   24  C   UNL     1     -24.157   3.450 -19.994  1.00  0.00     0.017 A 
ENDBRANCH  16  19
ENDBRANCH  13  15
ENDBRANCH   4   9
BRANCH   5  25
HETATM   25  C   UNL     1     -32.519   4.699 -22.080  1.00  0.00     0.269 C 
HETATM   26  N   UNL     1     -31.283   4.764 -22.587  1.00  0.00    -0.365 N 
ATOM     27  HN2 UNL     1     -30.466   4.400 -22.096  1.00  0.00     0.159 HD
ATOM     28  HN1 UNL     1     -31.193   5.227 -23.491  1.00  0.00     0.159 HD
HETATM   29  O   UNL     1     -33.521   5.146 -22.683  1.00  0.00    -0.266 OA
ENDBRANCH   5  25
BRANCH   8  30
HETATM   30  N   UNL     1     -34.781   2.909 -21.293  1.00  0.00    -0.338 N 
ATOM     31  HN  UNL     1     -34.498   2.432 -22.149  1.00  0.00     0.167 HD
BRANCH  30  32
HETATM   32  C   UNL     1     -36.149   3.187 -21.166  1.00  0.00     0.068 A 
HETATM   33  C   UNL     1     -36.981   3.230 -20.087  1.00  0.00     0.140 A 
HETATM   34  N   UNL     1     -38.164   3.664 -20.537  1.00  0.00    -0.306 N 
HETATM   35  N   UNL     1     -38.144   3.906 -21.890  1.00  0.00    -0.308 N 
HETATM   36  C   UNL     1     -39.386   3.867 -19.771  1.00  0.00     0.177 C 
HETATM   37  C   UNL     1     -36.911   3.602 -22.264  1.00  0.00     0.138 A 
ATOM     38  HN  UNL     1     -38.909   4.243 -22.475  1.00  0.00     0.186 HD
ENDBRANCH  30  32
ENDBRANCH   8  30
TORSDOF 6
ENDMDL
MODEL 5
REMARK VINA RESULT:    -9.388      3.581      5.642
REMARK INTER + INTRA:         -13.319
REMARK INTER:                 -12.307
REMARK INTRA:                  -1.012
REMARK UNBOUND:                -0.638
REMARK  6 active torsions:
REMARK  status: ('A' for Active; 'I' for Inactive)
REMARK    1  A    between atoms: N_1  and  C_32 
REMARK    2  A    between atoms: N_1  and  C_33 
REMARK    3  A    between atoms: C_6  and  C_9 
REMARK    4  A    between atoms: C_7  and  C_8 
REMARK       I    between atoms: C_8  and  N_28 
REMARK    5  A    between atoms: C_12  and  C_17 
REMARK       I    between atoms: C_17  and  N_21 
REMARK    6  A    between atoms: N_21  and  C_23 
ROOT
HETATM    1  N   UNL     1     -33.447   3.067 -19.762  1.00  0.00    -0.347 N 
ATOM      2  HN  UNL     1     -33.185   2.274 -19.176  1.00  0.00     0.166 HD
HETATM    3  C   UNL     1     -32.976   5.173 -20.744  1.00  0.00     0.119 A 
HETATM    4  C   UNL     1     -32.627   4.117 -19.905  1.00  0.00     0.054 A 
HETATM    5  C   UNL     1     -34.618   3.085 -20.408  1.00  0.00     0.145 A 
HETATM    6  N   UNL     1     -34.150   5.211 -21.394  1.00  0.00    -0.348 N 
ATOM      7  HN  UNL     1     -34.394   5.996 -21.997  1.00  0.00     0.167 HD
HETATM    8  C   UNL     1     -34.993   4.176 -21.220  1.00  0.00     0.138 A 
ENDROOT
BRANCH   4   9
HETATM    9  C   UNL     1     -31.395   4.139 -19.106  1.00  0.00    -0.032 C 
HETATM   10  C   UNL     1     -30.167   4.195 -19.698  1.00  0.00    -0.017 C 
HETATM   11  C   UNL     1     -28.870   4.120 -18.943  1.00  0.00     0.030 C 
HETATM   12  C   UNL     1     -29.071   4.391 -17.455  1.00  0.00     0.029 C 
HETATM   13  C   UNL     1     -30.263   3.616 -16.914  1.00  0.00     0.089 C 
HETATM   14  C   UNL     1     -31.546   4.085 -17.602  1.00  0.00     0.065 C 
BRANCH  13  15
HETATM   15  N   UNL     1     -30.387   3.813 -15.474  1.00  0.00    -0.352 N 
HETATM   16  C   UNL     1     -30.486   2.787 -14.618  1.00  0.00     0.252 C 
HETATM   17  O   UNL     1     -30.426   1.617 -14.988  1.00  0.00    -0.268 OA
ATOM     18  HN  UNL     1     -30.399   4.764 -15.106  1.00  0.00     0.163 HD
BRANCH  16  19
HETATM   19  C   UNL     1     -30.650   3.135 -13.176  1.00  0.00     0.032 A 
HETATM   20  C   UNL     1     -29.586   3.632 -12.424  1.00  0.00     0.017 A 
HETATM   21  C   UNL     1     -29.743   3.878 -11.071  1.00  0.00     0.001 A 
HETATM   22  C   UNL     1     -30.949   3.630 -10.453  1.00  0.00     0.000 A 
HETATM   23  C   UNL     1     -32.014   3.156 -11.193  1.00  0.00     0.001 A 
HETATM   24  C   UNL     1     -31.872   2.917 -12.549  1.00  0.00     0.017 A 
ENDBRANCH  16  19
ENDBRANCH  13  15
ENDBRANCH   4   9
BRANCH   5  25
HETATM   25  C   UNL     1     -35.491   1.867 -20.195  1.00  0.00     0.269 C 
HETATM   26  N   UNL     1     -35.403   1.284 -18.995  1.00  0.00    -0.365 N 
ATOM     27  HN2 UNL     1     -34.769   1.612 -18.267  1.00  0.00     0.159 HD
ATOM     28  HN1 UNL     1     -35.992   0.463 -18.851  1.00  0.00     0.159 HD
HETATM   29  O   UNL     1     -36.271   1.463 -21.088  1.00  0.00    -0.266 OA
ENDBRANCH   5  25
BRANCH   8  30
HETATM   30  N   UNL     1     -36.253   4.256 -21.824  1.00  0.00    -0.338 N 
ATOM     31  HN  UNL     1     -37.056   4.222 -21.196  1.00  0.00     0.167 HD
BRANCH  30  32
HETATM   32  C   UNL     1     -36.545   4.376 -23.191  1.00  0.00     0.068 A 
HETATM   33  C   UNL     1     -37.665   4.768 -23.860  1.00  0.00     0.140 A 
HETATM   34  N   UNL     1     -37.341   4.804 -25.156  1.00  0.00    -0.306 N 
HETATM   35  N   UNL     1     -36.033   4.440 -25.371  1.00  0.00    -0.308 N 
HETATM   36  C   UNL     1     -38.201   5.152 -26.279  1.00  0.00     0.177 C 
HETATM   37  C   UNL     1     -35.560   4.172 -24.164  1.00  0.00     0.138 A 
ATOM     38  HN  UNL     1     -35.537   4.387 -26.262  1.00  0.00     0.186 HD
ENDBRANCH  30  32
ENDBRANCH   8  30
TORSDOF 6
ENDMDL
MODEL 6
REMARK VINA RESULT:    -9.325      2.909      5.164
REMARK INTER + INTRA:         -13.234
REMARK INTER:                 -12.435
REMARK INTRA:                  -0.798
REMARK UNBOUND:                -0.638
REMARK  6 active torsions:
REMARK  status: ('A' for Active; 'I' for Inactive)
REMARK    1  A    between atoms: N_1  and  C_32 
REMARK    2  A    between atoms: N_1  and  C_33 
REMARK    3  A    between atoms: C_6  and  C_9 
REMARK    4  A    between atoms: C_7  and  C_8 
REMARK       I    between atoms: C_8  and  N_28 
REMARK    5  A    between atoms: C_12  and  C_17 
REMARK       I    between atoms: C_17  and  N_21 
REMARK    6  A    between atoms: N_21  and  C_23 
ROOT
HETATM    1  N   UNL     1     -31.292   4.502 -21.947  1.00  0.00    -0.347 N 
ATOM      2  HN  UNL     1     -30.317   4.760 -22.097  1.00  0.00     0.166 HD
HETATM    3  C   UNL     1     -33.129   4.057 -20.516  1.00  0.00     0.119 A 
HETATM    4  C   UNL     1     -31.784   4.365 -20.708  1.00  0.00     0.054 A 
HETATM    5  C   UNL     1     -32.113   4.293 -22.981  1.00  0.00     0.145 A 
HETATM    6  N   UNL     1     -33.965   3.837 -21.542  1.00  0.00    -0.348 N 
ATOM      7  HN  UNL     1     -34.945   3.604 -21.383  1.00  0.00     0.167 HD
HETATM    8  C   UNL     1     -33.464   3.935 -22.787  1.00  0.00     0.138 A 
ENDROOT
BRANCH   4   9
HETATM    9  C   UNL     1     -30.850   4.487 -19.581  1.00  0.00    -0.032 C 
HETATM   10  C   UNL     1     -29.547   4.841 -19.775  1.00  0.00    -0.017 C 
HETATM   11  C   UNL     1     -28.521   4.888 -18.679  1.00  0.00     0.030 C 
HETATM   12  C   UNL     1     -29.173   4.902 -17.299  1.00  0.00     0.029 C 
HETATM   13  C   UNL     1     -30.278   3.860 -17.207  1.00  0.00     0.089 C 
HETATM   14  C   UNL     1     -31.392   4.191 -18.200  1.00  0.00     0.065 C 
BRANCH  13  15
HETATM   15  N   UNL     1     -30.829   3.822 -15.856  1.00  0.00    -0.352 N 
HETATM   16  C   UNL     1     -30.851   2.701 -15.124  1.00  0.00     0.252 C 
HETATM   17  O   UNL     1     -30.361   1.648 -15.524  1.00  0.00    -0.268 OA
ATOM     18  HN  UNL     1     -31.211   4.679 -15.456  1.00  0.00     0.163 HD
BRANCH  16  19
HETATM   19  C   UNL     1     -31.484   2.798 -13.776  1.00  0.00     0.032 A 
HETATM   20  C   UNL     1     -32.868   2.745 -13.618  1.00  0.00     0.017 A 
HETATM   21  C   UNL     1     -33.435   2.910 -12.366  1.00  0.00     0.001 A 
HETATM   22  C   UNL     1     -32.637   3.132 -11.264  1.00  0.00     0.000 A 
HETATM   23  C   UNL     1     -31.265   3.168 -11.407  1.00  0.00     0.001 A 
HETATM   24  C   UNL     1     -30.687   2.993 -12.652  1.00  0.00     0.017 A 
ENDBRANCH  16  19
ENDBRANCH  13  15
ENDBRANCH   4   9
BRANCH   5  25
HETATM   25  C   UNL     1     -31.485   4.463 -24.348  1.00  0.00     0.269 C 
HETATM   26  N   UNL     1     -30.197   4.117 -24.450  1.00  0.00    -0.365 N 
ATOM     27  HN2 UNL     1     -29.651   3.784 -23.656  1.00  0.00     0.159 HD
ATOM     28  HN1 UNL     1     -29.775   4.231 -25.371  1.00  0.00     0.159 HD
HETATM   29  O   UNL     1     -32.156   4.871 -25.324  1.00  0.00    -0.266 OA
ENDBRANCH   5  25
BRANCH   8  30
HETATM   30  N   UNL     1     -34.311   3.617 -23.856  1.00  0.00    -0.338 N 
ATOM     31  HN  UNL     1     -33.990   2.877 -24.479  1.00  0.00     0.167 HD
BRANCH  30  32
HETATM   32  C   UNL     1     -35.549   4.196 -24.172  1.00  0.00     0.068 A 
HETATM   33  C   UNL     1     -36.150   4.486 -25.359  1.00  0.00     0.140 A 
HETATM   34  N   UNL     1     -37.379   4.923 -25.066  1.00  0.00    -0.306 N 
HETATM   35  N   UNL     1     -37.612   4.938 -23.711  1.00  0.00    -0.308 N 
HETATM   36  C   UNL     1     -38.409   5.372 -25.994  1.00  0.00     0.177 C 
HETATM   37  C   UNL     1     -36.483   4.500 -23.176  1.00  0.00     0.138 A 
ATOM     38  HN  UNL     1     -38.464   5.223 -23.227  1.00  0.00     0.186 HD
ENDBRANCH  30  32
ENDBRANCH   8  30
TORSDOF 6
ENDMDL
MODEL 7
REMARK VINA RESULT:    -9.256      3.545      4.365
REMARK INTER + INTRA:         -13.141
REMARK INTER:                 -11.998
REMARK INTRA:                  -1.143
REMARK UNBOUND:                -0.638
REMARK  6 active torsions:
REMARK  status: ('A' for Active; 'I' for Inactive)
REMARK    1  A    between atoms: N_1  and  C_32 
REMARK    2  A    between atoms: N_1  and  C_33 
REMARK    3  A    between atoms: C_6  and  C_9 
REMARK    4  A    between atoms: C_7  and  C_8 
REMARK       I    between atoms: C_8  and  N_28 
REMARK    5  A    between atoms: C_12  and  C_17 
REMARK       I    between atoms: C_17  and  N_21 
REMARK    6  A    between atoms: N_21  and  C_23 
ROOT
HETATM    1  N   UNL     1     -32.304   3.250 -18.325  1.00  0.00    -0.347 N 
ATOM      2  HN  UNL     1     -31.820   4.070 -18.691  1.00  0.00     0.166 HD
HETATM    3  C   UNL     1     -32.562   1.536 -16.708  1.00  0.00     0.119 A 
HETATM    4  C   UNL     1     -31.866   2.627 -17.224  1.00  0.00     0.054 A 
HETATM    5  C   UNL     1     -33.394   2.769 -18.934  1.00  0.00     0.145 A 
HETATM    6  N   UNL     1     -33.653   1.036 -17.309  1.00  0.00    -0.348 N 
ATOM      7  HN  UNL     1     -34.146   0.231 -16.923  1.00  0.00     0.167 HD
HETATM    8  C   UNL     1     -34.072   1.635 -18.439  1.00  0.00     0.138 A 
ENDROOT
BRANCH   4   9
HETATM    9  C   UNL     1     -30.607   3.093 -16.627  1.00  0.00    -0.032 C 
HETATM   10  C   UNL     1     -30.593   3.776 -15.446  1.00  0.00    -0.017 C 
HETATM   11  C   UNL     1     -29.353   4.364 -14.835  1.00  0.00     0.030 C 
HETATM   12  C   UNL     1     -28.088   3.769 -15.448  1.00  0.00     0.029 C 
HETATM   13  C   UNL     1     -28.188   3.718 -16.965  1.00  0.00     0.089 C 
HETATM   14  C   UNL     1     -29.332   2.793 -17.383  1.00  0.00     0.065 C 
BRANCH  13  15
HETATM   15  N   UNL     1     -26.938   3.232 -17.541  1.00  0.00    -0.352 N 
HETATM   16  C   UNL     1     -25.979   4.062 -17.972  1.00  0.00     0.252 C 
HETATM   17  O   UNL     1     -26.071   5.282 -17.861  1.00  0.00    -0.268 OA
ATOM     18  HN  UNL     1     -26.790   2.226 -17.619  1.00  0.00     0.163 HD
BRANCH  16  19
HETATM   19  C   UNL     1     -24.772   3.429 -18.578  1.00  0.00     0.032 A 
HETATM   20  C   UNL     1     -24.684   3.199 -19.950  1.00  0.00     0.017 A 
HETATM   21  C   UNL     1     -23.586   2.544 -20.479  1.00  0.00     0.001 A 
HETATM   22  C   UNL     1     -22.571   2.108 -19.655  1.00  0.00     0.000 A 
HETATM   23  C   UNL     1     -22.640   2.347 -18.297  1.00  0.00     0.001 A 
HETATM   24  C   UNL     1     -23.728   3.011 -17.759  1.00  0.00     0.017 A 
ENDBRANCH  16  19
ENDBRANCH  13  15
ENDBRANCH   4   9
BRANCH   5  25
HETATM   25  C   UNL     1     -33.826   3.522 -20.173  1.00  0.00     0.269 C 
HETATM   26  N   UNL     1     -33.487   4.815 -20.224  1.00  0.00    -0.365 N 
ATOM     27  HN2 UNL     1     -32.992   5.285 -19.466  1.00  0.00     0.159 HD
ATOM     28  HN1 UNL     1     -33.778   5.322 -21.059  1.00  0.00     0.159 HD
HETATM   29  O   UNL     1     -34.434   2.946 -21.104  1.00  0.00    -0.266 OA
ENDBRANCH   5  25
BRANCH   8  30
HETATM   30  N   UNL     1     -35.155   1.061 -19.116  1.00  0.00    -0.338 N 
ATOM     31  HN  UNL     1     -34.927   0.515 -19.946  1.00  0.00     0.167 HD
BRANCH  30  32
HETATM   32  C   UNL     1     -36.516   1.147 -18.789  1.00  0.00     0.068 A 
HETATM   33  C   UNL     1     -37.263   0.570 -17.807  1.00  0.00     0.140 A 
HETATM   34  N   UNL     1     -38.487   1.101 -17.898  1.00  0.00    -0.306 N 
HETATM   35  N   UNL     1     -38.578   2.015 -18.921  1.00  0.00    -0.308 N 
HETATM   36  C   UNL     1     -39.651   0.799 -17.076  1.00  0.00     0.177 C 
HETATM   37  C   UNL     1     -37.370   2.027 -19.463  1.00  0.00     0.138 A 
ATOM     38  HN  UNL     1     -39.393   2.561 -19.200  1.00  0.00     0.186 HD
ENDBRANCH  30  32
ENDBRANCH   8  30
TORSDOF 6
ENDMDL
MODEL 8
REMARK VINA RESULT:    -9.234      2.791      3.931
REMARK INTER + INTRA:         -13.112
REMARK INTER:                 -12.163
REMARK INTRA:                  -0.949
REMARK UNBOUND:                -0.638
REMARK  6 active torsions:
REMARK  status: ('A' for Active; 'I' for Inactive)
REMARK    1  A    between atoms: N_1  and  C_32 
REMARK    2  A    between atoms: N_1  and  C_33 
REMARK    3  A    between atoms: C_6  and  C_9 
REMARK    4  A    between atoms: C_7  and  C_8 
REMARK       I    between atoms: C_8  and  N_28 
REMARK    5  A    between atoms: C_12  and  C_17 
REMARK       I    between atoms: C_17  and  N_21 
REMARK    6  A    between atoms: N_21  and  C_23 
ROOT
HETATM    1  N   UNL     1     -33.046   3.712 -17.190  1.00  0.00    -0.347 N 
ATOM      2  HN  UNL     1     -33.041   4.212 -16.301  1.00  0.00     0.166 HD
HETATM    3  C   UNL     1     -31.940   2.505 -18.903  1.00  0.00     0.119 A 
HETATM    4  C   UNL     1     -31.913   3.225 -17.712  1.00  0.00     0.054 A 
HETATM    5  C   UNL     1     -34.186   3.526 -17.864  1.00  0.00     0.145 A 
HETATM    6  N   UNL     1     -33.072   2.314 -19.597  1.00  0.00    -0.348 N 
ATOM      7  HN  UNL     1     -33.074   1.792 -20.473  1.00  0.00     0.167 HD
HETATM    8  C   UNL     1     -34.207   2.837 -19.096  1.00  0.00     0.138 A 
ENDROOT
BRANCH   4   9
HETATM    9  C   UNL     1     -30.653   3.530 -17.021  1.00  0.00    -0.032 C 
HETATM   10  C   UNL     1     -30.642   4.134 -15.799  1.00  0.00    -0.017 C 
HETATM   11  C   UNL     1     -29.390   4.561 -15.087  1.00  0.00     0.030 C 
HETATM   12  C   UNL     1     -28.153   3.885 -15.673  1.00  0.00     0.029 C 
HETATM   13  C   UNL     1     -28.170   3.939 -17.193  1.00  0.00     0.089 C 
HETATM   14  C   UNL     1     -29.369   3.156 -17.729  1.00  0.00     0.065 C 
BRANCH  13  15
HETATM   15  N   UNL     1     -26.940   3.372 -17.736  1.00  0.00    -0.352 N 
HETATM   16  C   UNL     1     -25.865   4.123 -18.005  1.00  0.00     0.252 C 
HETATM   17  O   UNL     1     -25.830   5.327 -17.764  1.00  0.00    -0.268 OA
ATOM     18  HN  UNL     1     -26.898   2.369 -17.916  1.00  0.00     0.163 HD
BRANCH  16  19
HETATM   19  C   UNL     1     -24.690   3.418 -18.597  1.00  0.00     0.032 A 
HETATM   20  C   UNL     1     -24.649   3.086 -19.950  1.00  0.00     0.017 A 
HETATM   21  C   UNL     1     -23.582   2.368 -20.461  1.00  0.00     0.001 A 
HETATM   22  C   UNL     1     -22.552   1.969 -19.637  1.00  0.00     0.000 A 
HETATM   23  C   UNL     1     -22.575   2.309 -18.299  1.00  0.00     0.001 A 
HETATM   24  C   UNL     1     -23.631   3.036 -17.780  1.00  0.00     0.017 A 
ENDBRANCH  16  19
ENDBRANCH  13  15
ENDBRANCH   4   9
BRANCH   5  25
HETATM   25  C   UNL     1     -35.423   4.107 -17.215  1.00  0.00     0.269 C 
HETATM   26  N   UNL     1     -35.227   4.782 -16.077  1.00  0.00    -0.365 N 
ATOM     27  HN2 UNL     1     -34.308   4.882 -15.647  1.00  0.00     0.159 HD
ATOM     28  HN1 UNL     1     -36.061   5.174 -15.640  1.00  0.00     0.159 HD
HETATM   29  O   UNL     1     -36.552   3.984 -17.744  1.00  0.00    -0.266 OA
ENDBRANCH   5  25
BRANCH   8  30
HETATM   30  N   UNL     1     -35.372   2.718 -19.863  1.00  0.00    -0.338 N 
ATOM     31  HN  UNL     1     -36.099   2.111 -19.483  1.00  0.00     0.167 HD
BRANCH  30  32
HETATM   32  C   UNL     1     -35.660   3.332 -21.090  1.00  0.00     0.068 A 
HETATM   33  C   UNL     1     -34.890   3.615 -22.178  1.00  0.00     0.140 A 
HETATM   34  N   UNL     1     -35.714   4.103 -23.111  1.00  0.00    -0.306 N 
HETATM   35  N   UNL     1     -37.016   4.158 -22.671  1.00  0.00    -0.308 N 
HETATM   36  C   UNL     1     -35.370   4.565 -24.448  1.00  0.00     0.177 C 
HETATM   37  C   UNL     1     -36.968   3.693 -21.432  1.00  0.00     0.138 A 
ATOM     38  HN  UNL     1     -37.835   4.485 -23.184  1.00  0.00     0.186 HD
ENDBRANCH  30  32
ENDBRANCH   8  30
TORSDOF 6
ENDMDL
MODEL 9
REMARK VINA RESULT:    -9.207      6.363     10.600
REMARK INTER + INTRA:         -13.075
REMARK INTER:                 -12.026
REMARK INTRA:                  -1.049
REMARK UNBOUND:                -0.638
REMARK  6 active torsions:
REMARK  status: ('A' for Active; 'I' for Inactive)
REMARK    1  A    between atoms: N_1  and  C_32 
REMARK    2  A    between atoms: N_1  and  C_33 
REMARK    3  A    between atoms: C_6  and  C_9 
REMARK    4  A    between atoms: C_7  and  C_8 
REMARK       I    between atoms: C_8  and  N_28 
REMARK    5  A    between atoms: C_12  and  C_17 
REMARK       I    between atoms: C_17  and  N_21 
REMARK    6  A    between atoms: N_21  and  C_23 
ROOT
HETATM    1  N   UNL     1     -30.978   2.675 -13.123  1.00  0.00    -0.347 N 
ATOM      2  HN  UNL     1     -30.801   3.659 -12.920  1.00  0.00     0.166 HD
HETATM    3  C   UNL     1     -31.037   0.839 -14.620  1.00  0.00     0.119 A 
HETATM    4  C   UNL     1     -30.836   2.193 -14.365  1.00  0.00     0.054 A 
HETATM    5  C   UNL     1     -31.359   1.833 -12.156  1.00  0.00     0.145 A 
HETATM    6  N   UNL     1     -31.425  -0.019 -13.664  1.00  0.00    -0.348 N 
ATOM      7  HN  UNL     1     -31.576  -1.006 -13.870  1.00  0.00     0.167 HD
HETATM    8  C   UNL     1     -31.608   0.471 -12.424  1.00  0.00     0.138 A 
ENDROOT
BRANCH   4   9
HETATM    9  C   UNL     1     -30.527   3.145 -15.439  1.00  0.00    -0.032 C 
HETATM   10  C   UNL     1     -29.619   4.147 -15.260  1.00  0.00    -0.017 C 
HETATM   11  C   UNL     1     -29.332   5.210 -16.282  1.00  0.00     0.030 C 
HETATM   12  C   UNL     1     -29.845   4.812 -17.663  1.00  0.00     0.029 C 
HETATM   13  C   UNL     1     -31.258   4.255 -17.582  1.00  0.00     0.089 C 
HETATM   14  C   UNL     1     -31.267   2.974 -16.748  1.00  0.00     0.065 C 
BRANCH  13  15
HETATM   15  N   UNL     1     -31.768   3.965 -18.919  1.00  0.00    -0.352 N 
HETATM   16  C   UNL     1     -32.802   4.631 -19.449  1.00  0.00     0.252 C 
HETATM   17  O   UNL     1     -33.352   5.561 -18.864  1.00  0.00    -0.268 OA
ATOM     18  HN  UNL     1     -31.321   3.231 -19.467  1.00  0.00     0.163 HD
BRANCH  16  19
HETATM   19  C   UNL     1     -33.245   4.201 -20.808  1.00  0.00     0.032 A 
HETATM   20  C   UNL     1     -32.688   4.752 -21.960  1.00  0.00     0.017 A 
HETATM   21  C   UNL     1     -33.166   4.392 -23.208  1.00  0.00     0.001 A 
HETATM   22  C   UNL     1     -34.201   3.488 -23.323  1.00  0.00     0.000 A 
HETATM   23  C   UNL     1     -34.747   2.924 -22.188  1.00  0.00     0.001 A 
HETATM   24  C   UNL     1     -34.269   3.268 -20.936  1.00  0.00     0.017 A 
ENDBRANCH  16  19
ENDBRANCH  13  15
ENDBRANCH   4   9
BRANCH   5  25
HETATM   25  C   UNL     1     -31.502   2.451 -10.782  1.00  0.00     0.269 C 
HETATM   26  N   UNL     1     -30.362   2.739 -10.145  1.00  0.00    -0.365 N 
ATOM     27  HN2 UNL     1     -29.444   2.534 -10.538  1.00  0.00     0.159 HD
ATOM     28  HN1 UNL     1     -30.459   3.155  -9.219  1.00  0.00     0.159 HD
HETATM   29  O   UNL     1     -32.630   2.703 -10.298  1.00  0.00    -0.266 OA
ENDBRANCH   5  25
BRANCH   8  30
HETATM   30  N   UNL     1     -32.101  -0.403 -11.446  1.00  0.00    -0.338 N 
ATOM     31  HN  UNL     1     -31.442  -0.680 -10.719  1.00  0.00     0.167 HD
BRANCH  30  32
HETATM   32  C   UNL     1     -33.391  -0.941 -11.347  1.00  0.00     0.068 A 
HETATM   33  C   UNL     1     -34.496  -0.830 -12.137  1.00  0.00     0.140 A 
HETATM   34  N   UNL     1     -35.415  -1.654 -11.623  1.00  0.00    -0.306 N 
HETATM   35  N   UNL     1     -34.954  -2.308 -10.505  1.00  0.00    -0.308 N 
HETATM   36  C   UNL     1     -36.772  -1.883 -12.102  1.00  0.00     0.177 C 
HETATM   37  C   UNL     1     -33.720  -1.857 -10.342  1.00  0.00     0.138 A 
ATOM     38  HN  UNL     1     -35.452  -2.988  -9.930  1.00  0.00     0.186 HD
ENDBRANCH  30  32
ENDBRANCH   8  30
TORSDOF 6
ENDMDL
MODEL 10
REMARK VINA RESULT:    -9.071      3.788      4.776
REMARK INTER + INTRA:         -12.890
REMARK INTER:                 -11.994
REMARK INTRA:                  -0.897
REMARK UNBOUND:                -0.638
REMARK  6 active torsions:
REMARK  status: ('A' for Active; 'I' for Inactive)
REMARK    1  A    between atoms: N_1  and  C_32 
REMARK    2  A    between atoms: N_1  and  C_33 
REMARK    3  A    between atoms: C_6  and  C_9 
REMARK    4  A    between atoms: C_7  and  C_8 
REMARK       I    between atoms: C_8  and  N_28 
REMARK    5  A    between atoms: C_12  and  C_17 
REMARK       I    between atoms: C_17  and  N_21 
REMARK    6  A    between atoms: N_21  and  C_23 
ROOT
HETATM    1  N   UNL     1     -32.842   1.981 -16.532  1.00  0.00    -0.347 N 
ATOM      2  HN  UNL     1     -32.663   1.960 -15.527  1.00  0.00     0.166 HD
HETATM    3  C   UNL     1     -32.158   2.432 -18.756  1.00  0.00     0.119 A 
HETATM    4  C   UNL     1     -31.920   2.450 -17.384  1.00  0.00     0.054 A 
HETATM    5  C   UNL     1     -34.002   1.542 -17.031  1.00  0.00     0.145 A 
HETATM    6  N   UNL     1     -33.318   2.001 -19.275  1.00  0.00    -0.348 N 
ATOM      7  HN  UNL     1     -33.479   2.003 -20.282  1.00  0.00     0.167 HD
HETATM    8  C   UNL     1     -34.261   1.568 -18.418  1.00  0.00     0.138 A 
ENDROOT
BRANCH   4   9
HETATM    9  C   UNL     1     -30.696   3.033 -16.819  1.00  0.00    -0.032 C 
HETATM   10  C   UNL     1     -30.736   3.837 -15.718  1.00  0.00    -0.017 C 
HETATM   11  C   UNL     1     -29.536   4.541 -15.152  1.00  0.00     0.030 C 
HETATM   12  C   UNL     1     -28.234   3.942 -15.677  1.00  0.00     0.029 C 
HETATM   13  C   UNL     1     -28.299   3.727 -17.182  1.00  0.00     0.089 C 
HETATM   14  C   UNL     1     -29.393   2.713 -17.517  1.00  0.00     0.065 C 
BRANCH  13  15
HETATM   15  N   UNL     1     -27.018   3.240 -17.682  1.00  0.00    -0.352 N 
HETATM   16  C   UNL     1     -26.007   4.066 -17.982  1.00  0.00     0.252 C 
HETATM   17  O   UNL     1     -26.079   5.280 -17.805  1.00  0.00    -0.268 OA
ATOM     18  HN  UNL     1     -26.888   2.237 -17.808  1.00  0.00     0.163 HD
BRANCH  16  19
HETATM   19  C   UNL     1     -24.768   3.434 -18.524  1.00  0.00     0.032 A 
HETATM   20  C   UNL     1     -24.629   3.164 -19.884  1.00  0.00     0.017 A 
HETATM   21  C   UNL     1     -23.501   2.511 -20.353  1.00  0.00     0.001 A 
HETATM   22  C   UNL     1     -22.510   2.119 -19.481  1.00  0.00     0.000 A 
HETATM   23  C   UNL     1     -22.631   2.399 -18.134  1.00  0.00     0.001 A 
HETATM   24  C   UNL     1     -23.748   3.060 -17.656  1.00  0.00     0.017 A 
ENDBRANCH  16  19
ENDBRANCH  13  15
ENDBRANCH   4   9
BRANCH   5  25
HETATM   25  C   UNL     1     -34.993   1.032 -16.008  1.00  0.00     0.269 C 
HETATM   26  N   UNL     1     -34.478   0.615 -14.847  1.00  0.00    -0.365 N 
ATOM     27  HN2 UNL     1     -33.475   0.609 -14.659  1.00  0.00     0.159 HD
ATOM     28  HN1 UNL     1     -35.146   0.272 -14.158  1.00  0.00     0.159 HD
HETATM   29  O   UNL     1     -36.224   1.039 -16.239  1.00  0.00    -0.266 OA
ENDBRANCH   5  25
BRANCH   8  30
HETATM   30  N   UNL     1     -35.504   1.203 -18.950  1.00  0.00    -0.338 N 
ATOM     31  HN  UNL     1     -35.708   0.204 -18.971  1.00  0.00     0.167 HD
BRANCH  30  32
HETATM   32  C   UNL     1     -36.502   2.048 -19.456  1.00  0.00     0.068 A 
HETATM   33  C   UNL     1     -37.694   2.469 -18.948  1.00  0.00     0.140 A 
HETATM   34  N   UNL     1     -38.184   3.361 -19.815  1.00  0.00    -0.306 N 
HETATM   35  N   UNL     1     -37.352   3.542 -20.895  1.00  0.00    -0.308 N 
HETATM   36  C   UNL     1     -39.443   4.088 -19.728  1.00  0.00     0.177 C 
HETATM   37  C   UNL     1     -36.333   2.727 -20.668  1.00  0.00     0.138 A 
ATOM     38  HN  UNL     1     -37.489   4.163 -21.691  1.00  0.00     0.186 HD
ENDBRANCH  30  32
ENDBRANCH   8  30
TORSDOF 6
ENDMDL
MODEL 11
REMARK VINA RESULT:    -9.034      3.378      6.168
REMARK INTER + INTRA:         -12.841
REMARK INTER:                 -11.807
REMARK INTRA:                  -1.033
REMARK UNBOUND:                -0.638
REMARK  6 active torsions:
REMARK  status: ('A' for Active; 'I' for Inactive)
REMARK    1  A    between atoms: N_1  and  C_32 
REMARK    2  A    between atoms: N_1  and  C_33 
REMARK    3  A    between atoms: C_6  and  C_9 
REMARK    4  A    between atoms: C_7  and  C_8 
REMARK       I    between atoms: C_8  and  N_28 
REMARK    5  A    between atoms: C_12  and  C_17 
REMARK       I    between atoms: C_17  and  N_21 
REMARK    6  A    between atoms: N_21  and  C_23 
ROOT
HETATM    1  N   UNL     1     -36.149   4.329 -23.233  1.00  0.00    -0.347 N 
ATOM      2  HN  UNL     1     -35.831   4.266 -22.265  1.00  0.00     0.166 HD
HETATM    3  C   UNL     1     -35.716   4.478 -25.558  1.00  0.00     0.119 A 
HETATM    4  C   UNL     1     -35.272   4.440 -24.239  1.00  0.00     0.054 A 
HETATM    5  C   UNL     1     -37.453   4.302 -23.529  1.00  0.00     0.145 A 
HETATM    6  N   UNL     1     -37.020   4.459 -25.874  1.00  0.00    -0.348 N 
ATOM      7  HN  UNL     1     -37.330   4.497 -26.845  1.00  0.00     0.167 HD
HETATM    8  C   UNL     1     -37.905   4.389 -24.862  1.00  0.00     0.138 A 
ENDROOT
BRANCH   4   9
HETATM    9  C   UNL     1     -33.850   4.580 -23.898  1.00  0.00    -0.032 C 
HETATM   10  C   UNL     1     -32.903   4.755 -24.864  1.00  0.00    -0.017 C 
HETATM   11  C   UNL     1     -31.427   4.805 -24.589  1.00  0.00     0.030 C 
HETATM   12  C   UNL     1     -31.139   5.053 -23.111  1.00  0.00     0.029 C 
HETATM   13  C   UNL     1     -32.005   4.165 -22.230  1.00  0.00     0.089 C 
HETATM   14  C   UNL     1     -33.481   4.509 -22.433  1.00  0.00     0.065 C 
BRANCH  13  15
HETATM   15  N   UNL     1     -31.655   4.346 -20.824  1.00  0.00    -0.352 N 
HETATM   16  C   UNL     1     -30.541   3.827 -20.293  1.00  0.00     0.252 C 
HETATM   17  O   UNL     1     -29.720   3.211 -20.967  1.00  0.00    -0.268 OA
ATOM     18  HN  UNL     1     -32.280   4.887 -20.227  1.00  0.00     0.163 HD
BRANCH  16  19
HETATM   19  C   UNL     1     -30.330   4.055 -18.833  1.00  0.00     0.032 A 
HETATM   20  C   UNL     1     -31.299   3.700 -17.896  1.00  0.00     0.017 A 
HETATM   21  C   UNL     1     -31.111   3.988 -16.555  1.00  0.00     0.001 A 
HETATM   22  C   UNL     1     -29.969   4.633 -16.134  1.00  0.00     0.000 A 
HETATM   23  C   UNL     1     -28.995   4.973 -17.052  1.00  0.00     0.001 A 
HETATM   24  C   UNL     1     -29.167   4.679 -18.394  1.00  0.00     0.017 A 
ENDBRANCH  16  19
ENDBRANCH  13  15
ENDBRANCH   4   9
BRANCH   5  25
HETATM   25  C   UNL     1     -38.382   4.180 -22.341  1.00  0.00     0.269 C 
HETATM   26  N   UNL     1     -37.846   3.675 -21.224  1.00  0.00    -0.365 N 
ATOM     27  HN2 UNL     1     -36.877   3.361 -21.172  1.00  0.00     0.159 HD
ATOM     28  HN1 UNL     1     -38.472   3.593 -20.424  1.00  0.00     0.159 HD
HETATM   29  O   UNL     1     -39.572   4.565 -22.405  1.00  0.00    -0.266 OA
ENDBRANCH   5  25
BRANCH   8  30
HETATM   30  N   UNL     1     -39.267   4.461 -25.183  1.00  0.00    -0.338 N 
ATOM     31  HN  UNL     1     -39.744   5.324 -24.925  1.00  0.00     0.167 HD
BRANCH  30  32
HETATM   32  C   UNL     1     -40.052   3.487 -25.816  1.00  0.00     0.068 A 
HETATM   33  C   UNL     1     -40.398   3.292 -27.120  1.00  0.00     0.140 A 
HETATM   34  N   UNL     1     -41.070   2.137 -27.165  1.00  0.00    -0.306 N 
HETATM   35  N   UNL     1     -41.187   1.558 -25.923  1.00  0.00    -0.308 N 
HETATM   36  C   UNL     1     -41.662   1.498 -28.333  1.00  0.00     0.177 C 
HETATM   37  C   UNL     1     -40.569   2.398 -25.107  1.00  0.00     0.138 A 
ATOM     38  HN  UNL     1     -41.647   0.680 -25.685  1.00  0.00     0.186 HD
ENDBRANCH  30  32
ENDBRANCH   8  30
TORSDOF 6
ENDMDL
MODEL 12
REMARK VINA RESULT:    -9.003      4.551      6.177
REMARK INTER + INTRA:         -12.799
REMARK INTER:                 -11.583
REMARK INTRA:                  -1.217
REMARK UNBOUND:                -0.638
REMARK  6 active torsions:
REMARK  status: ('A' for Active; 'I' for Inactive)
REMARK    1  A    between atoms: N_1  and  C_32 
REMARK    2  A    between atoms: N_1  and  C_33 
REMARK    3  A    between atoms: C_6  and  C_9 
REMARK    4  A    between atoms: C_7  and  C_8 
REMARK       I    between atoms: C_8  and  N_28 
REMARK    5  A    between atoms: C_12  and  C_17 
REMARK       I    between atoms: C_17  and  N_21 
REMARK    6  A    between atoms: N_21  and  C_23 
ROOT
HETATM    1  N   UNL     1     -34.473   2.620 -19.106  1.00  0.00    -0.347 N 
ATOM      2  HN  UNL     1     -33.951   2.022 -18.465  1.00  0.00     0.166 HD
HETATM    3  C   UNL     1     -34.581   4.398 -20.670  1.00  0.00     0.119 A 
HETATM    4  C   UNL     1     -33.867   3.618 -19.763  1.00  0.00     0.054 A 
HETATM    5  C   UNL     1     -35.780   2.427 -19.311  1.00  0.00     0.145 A 
HETATM    6  N   UNL     1     -35.894   4.223 -20.884  1.00  0.00    -0.348 N 
ATOM      7  HN  UNL     1     -36.404   4.809 -21.544  1.00  0.00     0.167 HD
HETATM    8  C   UNL     1     -36.514   3.248 -20.194  1.00  0.00     0.138 A 
ENDROOT
BRANCH   4   9
HETATM    9  C   UNL     1     -32.459   3.892 -19.448  1.00  0.00    -0.032 C 
HETATM   10  C   UNL     1     -31.540   4.104 -20.433  1.00  0.00    -0.017 C 
HETATM   11  C   UNL     1     -30.071   4.290 -20.182  1.00  0.00     0.030 C 
HETATM   12  C   UNL     1     -29.790   4.625 -18.719  1.00  0.00     0.029 C 
HETATM   13  C   UNL     1     -30.569   3.707 -17.789  1.00  0.00     0.089 C 
HETATM   14  C   UNL     1     -32.071   3.916 -17.986  1.00  0.00     0.065 C 
BRANCH  13  15
HETATM   15  N   UNL     1     -30.221   3.978 -16.398  1.00  0.00    -0.352 N 
HETATM   16  C   UNL     1     -30.129   3.007 -15.482  1.00  0.00     0.252 C 
HETATM   17  O   UNL     1     -30.281   1.821 -15.767  1.00  0.00    -0.268 OA
ATOM     18  HN  UNL     1     -30.042   4.941 -16.115  1.00  0.00     0.163 HD
BRANCH  16  19
HETATM   19  C   UNL     1     -29.807   3.432 -14.088  1.00  0.00     0.032 A 
HETATM   20  C   UNL     1     -28.696   4.228 -13.811  1.00  0.00     0.017 A 
HETATM   21  C   UNL     1     -28.376   4.549 -12.503  1.00  0.00     0.001 A 
HETATM   22  C   UNL     1     -29.150   4.082 -11.462  1.00  0.00     0.000 A 
HETATM   23  C   UNL     1     -30.262   3.309 -11.728  1.00  0.00     0.001 A 
HETATM   24  C   UNL     1     -30.597   2.991 -13.032  1.00  0.00     0.017 A 
ENDBRANCH  16  19
ENDBRANCH  13  15
ENDBRANCH   4   9
BRANCH   5  25
HETATM   25  C   UNL     1     -36.395   1.285 -18.531  1.00  0.00     0.269 C 
HETATM   26  N   UNL     1     -35.795   0.971 -17.379  1.00  0.00    -0.365 N 
ATOM     27  HN2 UNL     1     -34.955   1.445 -17.047  1.00  0.00     0.159 HD
ATOM     28  HN1 UNL     1     -36.209   0.201 -16.853  1.00  0.00     0.159 HD
HETATM   29  O   UNL     1     -37.426   0.703 -18.938  1.00  0.00    -0.266 OA
ENDBRANCH   5  25
BRANCH   8  30
HETATM   30  N   UNL     1     -37.901   3.123 -20.347  1.00  0.00    -0.338 N 
ATOM     31  HN  UNL     1     -38.218   2.408 -21.002  1.00  0.00     0.167 HD
BRANCH  30  32
HETATM   32  C   UNL     1     -38.905   3.864 -19.709  1.00  0.00     0.068 A 
HETATM   33  C   UNL     1     -40.227   4.048 -19.985  1.00  0.00     0.140 A 
HETATM   34  N   UNL     1     -40.731   4.760 -18.972  1.00  0.00    -0.306 N 
HETATM   35  N   UNL     1     -39.778   5.063 -18.028  1.00  0.00    -0.308 N 
HETATM   36  C   UNL     1     -42.102   5.225 -18.807  1.00  0.00     0.177 C 
HETATM   37  C   UNL     1     -38.665   4.518 -18.495  1.00  0.00     0.138 A 
ATOM     38  HN  UNL     1     -39.900   5.590 -17.164  1.00  0.00     0.186 HD
ENDBRANCH  30  32
ENDBRANCH   8  30
TORSDOF 6
ENDMDL
MODEL 13
REMARK VINA RESULT:    -8.917      3.208     10.670
REMARK INTER + INTRA:         -12.683
REMARK INTER:                 -12.330
REMARK INTRA:                  -0.353
REMARK UNBOUND:                -0.638
REMARK  6 active torsions:
REMARK  status: ('A' for Active; 'I' for Inactive)
REMARK    1  A    between atoms: N_1  and  C_32 
REMARK    2  A    between atoms: N_1  and  C_33 
REMARK    3  A    between atoms: C_6  and  C_9 
REMARK    4  A    between atoms: C_7  and  C_8 
REMARK       I    between atoms: C_8  and  N_28 
REMARK    5  A    between atoms: C_12  and  C_17 
REMARK       I    between atoms: C_17  and  N_21 
REMARK    6  A    between atoms: N_21  and  C_23 
ROOT
HETATM    1  N   UNL     1     -26.435   3.728 -17.984  1.00  0.00    -0.347 N 
ATOM      2  HN  UNL     1     -26.832   3.700 -18.923  1.00  0.00     0.166 HD
HETATM    3  C   UNL     1     -26.673   3.742 -15.626  1.00  0.00     0.119 A 
HETATM    4  C   UNL     1     -27.227   3.748 -16.903  1.00  0.00     0.054 A 
HETATM    5  C   UNL     1     -25.110   3.747 -17.799  1.00  0.00     0.145 A 
HETATM    6  N   UNL     1     -25.347   3.768 -15.421  1.00  0.00    -0.348 N 
ATOM      7  HN  UNL     1     -24.957   3.771 -14.479  1.00  0.00     0.167 HD
HETATM    8  C   UNL     1     -24.549   3.789 -16.505  1.00  0.00     0.138 A 
ENDROOT
BRANCH   4   9
HETATM    9  C   UNL     1     -28.677   3.839 -17.117  1.00  0.00    -0.032 C 
HETATM   10  C   UNL     1     -29.538   4.010 -16.073  1.00  0.00    -0.017 C 
HETATM   11  C   UNL     1     -31.034   4.011 -16.213  1.00  0.00     0.030 C 
HETATM   12  C   UNL     1     -31.461   4.215 -17.664  1.00  0.00     0.029 C 
HETATM   13  C   UNL     1     -30.651   3.332 -18.602  1.00  0.00     0.089 C 
HETATM   14  C   UNL     1     -29.174   3.723 -18.541  1.00  0.00     0.065 C 
BRANCH  13  15
HETATM   15  N   UNL     1     -31.132   3.470 -19.973  1.00  0.00    -0.352 N 
HETATM   16  C   UNL     1     -30.730   4.464 -20.774  1.00  0.00     0.252 C 
HETATM   17  O   UNL     1     -29.894   5.292 -20.422  1.00  0.00    -0.268 OA
ATOM     18  HN  UNL     1     -31.796   2.785 -20.332  1.00  0.00     0.163 HD
BRANCH  16  19
HETATM   19  C   UNL     1     -31.336   4.508 -22.137  1.00  0.00     0.032 A 
HETATM   20  C   UNL     1     -32.718   4.522 -22.317  1.00  0.00     0.017 A 
HETATM   21  C   UNL     1     -33.256   4.488 -23.592  1.00  0.00     0.001 A 
HETATM   22  C   UNL     1     -32.432   4.436 -24.695  1.00  0.00     0.000 A 
HETATM   23  C   UNL     1     -31.062   4.441 -24.528  1.00  0.00     0.001 A 
HETATM   24  C   UNL     1     -30.512   4.485 -23.258  1.00  0.00     0.017 A 
ENDBRANCH  16  19
ENDBRANCH  13  15
ENDBRANCH   4   9
BRANCH   5  25
HETATM   25  C   UNL     1     -24.282   3.728 -19.066  1.00  0.00     0.269 C 
HETATM   26  N   UNL     1     -24.663   2.854 -20.004  1.00  0.00    -0.365 N 
ATOM     27  HN2 UNL     1     -25.446   2.214 -19.875  1.00  0.00     0.159 HD
ATOM     28  HN1 UNL     1     -24.105   2.841 -20.857  1.00  0.00     0.159 HD
HETATM   29  O   UNL     1     -23.320   4.514 -19.224  1.00  0.00    -0.266 OA
ENDBRANCH   5  25
BRANCH   8  30
HETATM   30  N   UNL     1     -23.170   3.908 -16.296  1.00  0.00    -0.338 N 
ATOM     31  HN  UNL     1     -22.577   3.287 -16.846  1.00  0.00     0.167 HD
BRANCH  30  32
HETATM   32  C   UNL     1     -22.506   4.778 -15.419  1.00  0.00     0.068 A 
HETATM   33  C   UNL     1     -21.555   4.571 -14.465  1.00  0.00     0.140 A 
HETATM   34  N   UNL     1     -21.199   5.779 -14.015  1.00  0.00    -0.306 N 
HETATM   35  N   UNL     1     -21.894   6.788 -14.640  1.00  0.00    -0.308 N 
HETATM   36  C   UNL     1     -20.223   6.090 -12.980  1.00  0.00     0.177 C 
HETATM   37  C   UNL     1     -22.695   6.162 -15.489  1.00  0.00     0.138 A 
ATOM     38  HN  UNL     1     -21.811   7.792 -14.484  1.00  0.00     0.186 HD
ENDBRANCH  30  32
ENDBRANCH   8  30
TORSDOF 6
ENDMDL
MODEL 14
REMARK VINA RESULT:    -8.743      6.590     11.033
REMARK INTER + INTRA:         -12.448
REMARK INTER:                 -11.258
REMARK INTRA:                  -1.190
REMARK UNBOUND:                -0.638
REMARK  6 active torsions:
REMARK  status: ('A' for Active; 'I' for Inactive)
REMARK    1  A    between atoms: N_1  and  C_32 
REMARK    2  A    between atoms: N_1  and  C_33 
REMARK    3  A    between atoms: C_6  and  C_9 
REMARK    4  A    between atoms: C_7  and  C_8 
REMARK       I    between atoms: C_8  and  N_28 
REMARK    5  A    between atoms: C_12  and  C_17 
REMARK       I    between atoms: C_17  and  N_21 
REMARK    6  A    between atoms: N_21  and  C_23 
ROOT
HETATM    1  N   UNL     1     -31.341   3.081 -12.918  1.00  0.00    -0.347 N 
ATOM      2  HN  UNL     1     -30.584   3.748 -12.766  1.00  0.00     0.166 HD
HETATM    3  C   UNL     1     -32.701   1.770 -14.350  1.00  0.00     0.119 A 
HETATM    4  C   UNL     1     -31.697   2.715 -14.157  1.00  0.00     0.054 A 
HETATM    5  C   UNL     1     -32.003   2.549 -11.885  1.00  0.00     0.145 A 
HETATM    6  N   UNL     1     -33.381   1.231 -13.326  1.00  0.00    -0.348 N 
ATOM      7  HN  UNL     1     -34.120   0.546 -13.485  1.00  0.00     0.167 HD
HETATM    8  C   UNL     1     -33.053   1.626 -12.082  1.00  0.00     0.138 A 
ENDROOT
BRANCH   4   9
HETATM    9  C   UNL     1     -31.041   3.387 -15.286  1.00  0.00    -0.032 C 
HETATM   10  C   UNL     1     -29.885   4.091 -15.118  1.00  0.00    -0.017 C 
HETATM   11  C   UNL     1     -29.220   4.881 -16.209  1.00  0.00     0.030 C 
HETATM   12  C   UNL     1     -29.735   4.478 -17.588  1.00  0.00     0.029 C 
HETATM   13  C   UNL     1     -31.254   4.378 -17.595  1.00  0.00     0.089 C 
HETATM   14  C   UNL     1     -31.709   3.275 -16.639  1.00  0.00     0.065 C 
BRANCH  13  15
HETATM   15  N   UNL     1     -31.737   4.081 -18.940  1.00  0.00    -0.352 N 
HETATM   16  C   UNL     1     -32.801   4.698 -19.469  1.00  0.00     0.252 C 
HETATM   17  O   UNL     1     -33.405   5.588 -18.875  1.00  0.00    -0.268 OA
ATOM     18  HN  UNL     1     -31.247   3.381 -19.496  1.00  0.00     0.163 HD
BRANCH  16  19
HETATM   19  C   UNL     1     -33.211   4.267 -20.838  1.00  0.00     0.032 A 
HETATM   20  C   UNL     1     -32.638   4.829 -21.977  1.00  0.00     0.017 A 
HETATM   21  C   UNL     1     -33.086   4.466 -23.236  1.00  0.00     0.001 A 
HETATM   22  C   UNL     1     -34.104   3.548 -23.374  1.00  0.00     0.000 A 
HETATM   23  C   UNL     1     -34.665   2.972 -22.252  1.00  0.00     0.001 A 
HETATM   24  C   UNL     1     -34.218   3.320 -20.990  1.00  0.00     0.017 A 
ENDBRANCH  16  19
ENDBRANCH  13  15
ENDBRANCH   4   9
BRANCH   5  25
HETATM   25  C   UNL     1     -31.547   3.012 -10.519  1.00  0.00     0.269 C 
HETATM   26  N   UNL     1     -30.303   2.672 -10.167  1.00  0.00    -0.365 N 
ATOM     27  HN2 UNL     1     -29.696   2.110 -10.764  1.00  0.00     0.159 HD
ATOM     28  HN1 UNL     1     -29.996   2.984  -9.246  1.00  0.00     0.159 HD
HETATM   29  O   UNL     1     -32.292   3.702  -9.786  1.00  0.00    -0.266 OA
ENDBRANCH   5  25
BRANCH   8  30
HETATM   30  N   UNL     1     -33.820   1.134 -11.019  1.00  0.00    -0.338 N 
ATOM     31  HN  UNL     1     -34.558   1.748 -10.676  1.00  0.00     0.167 HD
BRANCH  30  32
HETATM   32  C   UNL     1     -33.695  -0.103 -10.370  1.00  0.00     0.068 A 
HETATM   33  C   UNL     1     -34.566  -1.134 -10.184  1.00  0.00     0.140 A 
HETATM   34  N   UNL     1     -33.873  -2.114  -9.593  1.00  0.00    -0.306 N 
HETATM   35  N   UNL     1     -32.563  -1.761  -9.375  1.00  0.00    -0.308 N 
HETATM   36  C   UNL     1     -34.362  -3.421  -9.175  1.00  0.00     0.177 C 
HETATM   37  C   UNL     1     -32.469  -0.526  -9.846  1.00  0.00     0.138 A 
ATOM     38  HN  UNL     1     -31.828  -2.323  -8.946  1.00  0.00     0.186 HD
ENDBRANCH  30  32
ENDBRANCH   8  30
TORSDOF 6
ENDMDL
MODEL 15
REMARK VINA RESULT:    -8.666      3.427     10.990
REMARK INTER + INTRA:         -12.344
REMARK INTER:                 -11.261
REMARK INTRA:                  -1.083
REMARK UNBOUND:                -0.638
REMARK  6 active torsions:
REMARK  status: ('A' for Active; 'I' for Inactive)
REMARK    1  A    between atoms: N_1  and  C_32 
REMARK    2  A    between atoms: N_1  and  C_33 
REMARK    3  A    between atoms: C_6  and  C_9 
REMARK    4  A    between atoms: C_7  and  C_8 
REMARK       I    between atoms: C_8  and  N_28 
REMARK    5  A    between atoms: C_12  and  C_17 
REMARK       I    between atoms: C_17  and  N_21 
REMARK    6  A    between atoms: N_21  and  C_23 
ROOT
HETATM    1  N   UNL     1     -31.604   4.136 -20.510  1.00  0.00    -0.347 N 
ATOM      2  HN  UNL     1     -31.123   3.968 -21.394  1.00  0.00     0.166 HD
HETATM    3  C   UNL     1     -33.584   4.456 -19.247  1.00  0.00     0.119 A 
HETATM    4  C   UNL     1     -32.935   4.272 -20.466  1.00  0.00     0.054 A 
HETATM    5  C   UNL     1     -30.919   4.226 -19.364  1.00  0.00     0.145 A 
HETATM    6  N   UNL     1     -32.913   4.555 -18.089  1.00  0.00    -0.348 N 
ATOM      7  HN  UNL     1     -33.402   4.698 -17.205  1.00  0.00     0.167 HD
HETATM    8  C   UNL     1     -31.571   4.459 -18.135  1.00  0.00     0.138 A 
ENDROOT
BRANCH   4   9
HETATM    9  C   UNL     1     -33.667   4.283 -21.739  1.00  0.00    -0.032 C 
HETATM   10  C   UNL     1     -33.035   4.551 -22.918  1.00  0.00    -0.017 C 
HETATM   11  C   UNL     1     -33.742   4.674 -24.238  1.00  0.00     0.030 C 
HETATM   12  C   UNL     1     -35.142   4.071 -24.183  1.00  0.00     0.029 C 
HETATM   13  C   UNL     1     -35.879   4.514 -22.927  1.00  0.00     0.089 C 
HETATM   14  C   UNL     1     -35.151   3.997 -21.686  1.00  0.00     0.065 C 
BRANCH  13  15
HETATM   15  N   UNL     1     -37.246   4.003 -22.934  1.00  0.00    -0.352 N 
HETATM   16  C   UNL     1     -38.248   4.651 -23.541  1.00  0.00     0.252 C 
HETATM   17  O   UNL     1     -38.068   5.689 -24.175  1.00  0.00    -0.268 OA
ATOM     18  HN  UNL     1     -37.445   3.123 -22.459  1.00  0.00     0.163 HD
BRANCH  16  19
HETATM   19  C   UNL     1     -39.604   4.037 -23.432  1.00  0.00     0.032 A 
HETATM   20  C   UNL     1     -40.116   3.226 -24.444  1.00  0.00     0.017 A 
HETATM   21  C   UNL     1     -41.404   2.727 -24.354  1.00  0.00     0.001 A 
HETATM   22  C   UNL     1     -42.193   3.030 -23.266  1.00  0.00     0.000 A 
HETATM   23  C   UNL     1     -41.689   3.817 -22.250  1.00  0.00     0.001 A 
HETATM   24  C   UNL     1     -40.399   4.312 -22.325  1.00  0.00     0.017 A 
ENDBRANCH  16  19
ENDBRANCH  13  15
ENDBRANCH   4   9
BRANCH   5  25
HETATM   25  C   UNL     1     -29.420   4.066 -19.494  1.00  0.00     0.269 C 
HETATM   26  N   UNL     1     -29.000   3.147 -20.370  1.00  0.00    -0.365 N 
ATOM     27  HN2 UNL     1     -29.642   2.562 -20.905  1.00  0.00     0.159 HD
ATOM     28  HN1 UNL     1     -27.990   3.040 -20.457  1.00  0.00     0.159 HD
HETATM   29  O   UNL     1     -28.632   4.784 -18.837  1.00  0.00    -0.266 OA
ENDBRANCH   5  25
BRANCH   8  30
HETATM   30  N   UNL     1     -30.864   4.653 -16.942  1.00  0.00    -0.338 N 
ATOM     31  HN  UNL     1     -30.460   5.579 -16.804  1.00  0.00     0.167 HD
BRANCH  30  32
HETATM   32  C   UNL     1     -30.644   3.725 -15.914  1.00  0.00     0.068 A 
HETATM   33  C   UNL     1     -31.159   2.488 -15.667  1.00  0.00     0.140 A 
HETATM   34  N   UNL     1     -30.503   2.008 -14.606  1.00  0.00    -0.306 N 
HETATM   35  N   UNL     1     -29.567   2.896 -14.132  1.00  0.00    -0.308 N 
HETATM   36  C   UNL     1     -30.699   0.724 -13.945  1.00  0.00     0.177 C 
HETATM   37  C   UNL     1     -29.669   3.945 -14.934  1.00  0.00     0.138 A 
ATOM     38  HN  UNL     1     -28.935   2.775 -13.340  1.00  0.00     0.186 HD
ENDBRANCH  30  32
ENDBRANCH   8  30
TORSDOF 6
ENDMDL
MODEL 16
REMARK VINA RESULT:    -8.644      4.143      5.414
REMARK INTER + INTRA:         -12.314
REMARK INTER:                 -11.220
REMARK INTRA:                  -1.094
REMARK UNBOUND:                -0.638
REMARK  6 active torsions:
REMARK  status: ('A' for Active; 'I' for Inactive)
REMARK    1  A    between atoms: N_1  and  C_32 
REMARK    2  A    between atoms: N_1  and  C_33 
REMARK    3  A    between atoms: C_6  and  C_9 
REMARK    4  A    between atoms: C_7  and  C_8 
REMARK       I    between atoms: C_8  and  N_28 
REMARK    5  A    between atoms: C_12  and  C_17 
REMARK       I    between atoms: C_17  and  N_21 
REMARK    6  A    between atoms: N_21  and  C_23 
ROOT
HETATM    1  N   UNL     1     -34.863   3.162 -20.083  1.00  0.00    -0.347 N 
ATOM      2  HN  UNL     1     -34.486   2.664 -19.276  1.00  0.00     0.166 HD
HETATM    3  C   UNL     1     -34.596   4.595 -21.952  1.00  0.00     0.119 A 
HETATM    4  C   UNL     1     -34.081   3.956 -20.827  1.00  0.00     0.054 A 
HETATM    5  C   UNL     1     -36.150   3.040 -20.424  1.00  0.00     0.145 A 
HETATM    6  N   UNL     1     -35.885   4.489 -22.306  1.00  0.00    -0.348 N 
ATOM      7  HN  UNL     1     -36.249   4.971 -23.129  1.00  0.00     0.167 HD
HETATM    8  C   UNL     1     -36.683   3.725 -21.537  1.00  0.00     0.138 A 
ENDROOT
BRANCH   4   9
HETATM    9  C   UNL     1     -32.698   4.172 -20.380  1.00  0.00    -0.032 C 
HETATM   10  C   UNL     1     -31.697   4.426 -21.270  1.00  0.00    -0.017 C 
HETATM   11  C   UNL     1     -30.250   4.557 -20.887  1.00  0.00     0.030 C 
HETATM   12  C   UNL     1     -30.085   4.785 -19.388  1.00  0.00     0.029 C 
HETATM   13  C   UNL     1     -30.956   3.826 -18.590  1.00  0.00     0.089 C 
HETATM   14  C   UNL     1     -32.432   4.086 -18.893  1.00  0.00     0.065 C 
BRANCH  13  15
HETATM   15  N   UNL     1     -30.719   3.993 -17.160  1.00  0.00    -0.352 N 
HETATM   16  C   UNL     1     -29.969   3.137 -16.455  1.00  0.00     0.252 C 
HETATM   17  O   UNL     1     -29.391   2.187 -16.979  1.00  0.00    -0.268 OA
ATOM     18  HN  UNL     1     -31.140   4.789 -16.681  1.00  0.00     0.163 HD
BRANCH  16  19
HETATM   19  C   UNL     1     -29.846   3.406 -14.992  1.00  0.00     0.032 A 
HETATM   20  C   UNL     1     -28.779   4.140 -14.477  1.00  0.00     0.017 A 
HETATM   21  C   UNL     1     -28.647   4.314 -13.110  1.00  0.00     0.001 A 
HETATM   22  C   UNL     1     -29.566   3.760 -12.245  1.00  0.00     0.000 A 
HETATM   23  C   UNL     1     -30.636   3.047 -12.747  1.00  0.00     0.001 A 
HETATM   24  C   UNL     1     -30.784   2.876 -14.112  1.00  0.00     0.017 A 
ENDBRANCH  16  19
ENDBRANCH  13  15
ENDBRANCH   4   9
BRANCH   5  25
HETATM   25  C   UNL     1     -36.970   2.132 -19.535  1.00  0.00     0.269 C 
HETATM   26  N   UNL     1     -36.490   0.896 -19.354  1.00  0.00    -0.365 N 
ATOM     27  HN2 UNL     1     -35.638   0.565 -19.805  1.00  0.00     0.159 HD
ATOM     28  HN1 UNL     1     -37.043   0.284 -18.755  1.00  0.00     0.159 HD
HETATM   29  O   UNL     1     -38.017   2.538 -18.981  1.00  0.00    -0.266 OA
ENDBRANCH   5  25
BRANCH   8  30
HETATM   30  N   UNL     1     -38.047   3.686 -21.852  1.00  0.00    -0.338 N 
ATOM     31  HN  UNL     1     -38.668   3.353 -21.115  1.00  0.00     0.167 HD
BRANCH  30  32
HETATM   32  C   UNL     1     -38.661   4.050 -23.059  1.00  0.00     0.068 A 
HETATM   33  C   UNL     1     -39.024   3.331 -24.157  1.00  0.00     0.140 A 
HETATM   34  N   UNL     1     -39.678   4.174 -24.964  1.00  0.00    -0.306 N 
HETATM   35  N   UNL     1     -39.755   5.440 -24.433  1.00  0.00    -0.308 N 
HETATM   36  C   UNL     1     -40.256   3.887 -26.270  1.00  0.00     0.177 C 
HETATM   37  C   UNL     1     -39.122   5.354 -23.274  1.00  0.00     0.138 A 
ATOM     38  HN  UNL     1     -40.200   6.262 -24.842  1.00  0.00     0.186 HD
ENDBRANCH  30  32
ENDBRANCH   8  30
TORSDOF 6
ENDMDL
MODEL 17
REMARK VINA RESULT:    -8.641      6.398      9.584
REMARK INTER + INTRA:         -12.310
REMARK INTER:                 -11.223
REMARK INTRA:                  -1.088
REMARK UNBOUND:                -0.638
REMARK  6 active torsions:
REMARK  status: ('A' for Active; 'I' for Inactive)
REMARK    1  A    between atoms: N_1  and  C_32 
REMARK    2  A    between atoms: N_1  and  C_33 
REMARK    3  A    between atoms: C_6  and  C_9 
REMARK    4  A    between atoms: C_7  and  C_8 
REMARK       I    between atoms: C_8  and  N_28 
REMARK    5  A    between atoms: C_12  and  C_17 
REMARK       I    between atoms: C_17  and  N_21 
REMARK    6  A    between atoms: N_21  and  C_23 
ROOT
HETATM    1  N   UNL     1     -33.823   2.255 -15.881  1.00  0.00    -0.347 N 
ATOM      2  HN  UNL     1     -34.046   2.789 -16.722  1.00  0.00     0.166 HD
HETATM    3  C   UNL     1     -32.343   1.656 -14.129  1.00  0.00     0.119 A 
HETATM    4  C   UNL     1     -32.620   2.355 -15.302  1.00  0.00     0.054 A 
HETATM    5  C   UNL     1     -34.726   1.437 -15.330  1.00  0.00     0.145 A 
HETATM    6  N   UNL     1     -33.234   0.826 -13.566  1.00  0.00    -0.348 N 
ATOM      7  HN  UNL     1     -33.013   0.314 -12.712  1.00  0.00     0.167 HD
HETATM    8  C   UNL     1     -34.430   0.692 -14.169  1.00  0.00     0.138 A 
ENDROOT
BRANCH   4   9
HETATM    9  C   UNL     1     -31.599   3.169 -15.975  1.00  0.00    -0.032 C 
HETATM   10  C   UNL     1     -30.615   3.798 -15.271  1.00  0.00    -0.017 C 
HETATM   11  C   UNL     1     -29.604   4.722 -15.888  1.00  0.00     0.030 C 
HETATM   12  C   UNL     1     -29.541   4.554 -17.403  1.00  0.00     0.029 C 
HETATM   13  C   UNL     1     -30.938   4.509 -18.006  1.00  0.00     0.089 C 
HETATM   14  C   UNL     1     -31.694   3.289 -17.480  1.00  0.00     0.065 C 
BRANCH  13  15
HETATM   15  N   UNL     1     -30.861   4.440 -19.462  1.00  0.00    -0.352 N 
HETATM   16  C   UNL     1     -31.897   4.759 -20.248  1.00  0.00     0.252 C 
HETATM   17  O   UNL     1     -32.958   5.179 -19.794  1.00  0.00    -0.268 OA
ATOM     18  HN  UNL     1     -29.988   4.138 -19.895  1.00  0.00     0.163 HD
BRANCH  16  19
HETATM   19  C   UNL     1     -31.692   4.601 -21.718  1.00  0.00     0.032 A 
HETATM   20  C   UNL     1     -30.413   4.524 -22.268  1.00  0.00     0.017 A 
HETATM   21  C   UNL     1     -30.247   4.452 -23.640  1.00  0.00     0.001 A 
HETATM   22  C   UNL     1     -31.342   4.460 -24.476  1.00  0.00     0.000 A 
HETATM   23  C   UNL     1     -32.613   4.518 -23.940  1.00  0.00     0.001 A 
HETATM   24  C   UNL     1     -32.792   4.579 -22.569  1.00  0.00     0.017 A 
ENDBRANCH  16  19
ENDBRANCH  13  15
ENDBRANCH   4   9
BRANCH   5  25
HETATM   25  C   UNL     1     -36.059   1.373 -16.042  1.00  0.00     0.269 C 
HETATM   26  N   UNL     1     -36.020   1.022 -17.332  1.00  0.00    -0.365 N 
ATOM     27  HN2 UNL     1     -35.148   0.833 -17.826  1.00  0.00     0.159 HD
ATOM     28  HN1 UNL     1     -36.919   0.978 -17.812  1.00  0.00     0.159 HD
HETATM   29  O   UNL     1     -37.131   1.604 -15.437  1.00  0.00    -0.266 OA
ENDBRANCH   5  25
BRANCH   8  30
HETATM   30  N   UNL     1     -35.327  -0.242 -13.634  1.00  0.00    -0.338 N 
ATOM     31  HN  UNL     1     -36.056  -0.576 -14.264  1.00  0.00     0.167 HD
BRANCH  30  32
HETATM   32  C   UNL     1     -35.343  -0.771 -12.336  1.00  0.00     0.068 A 
HETATM   33  C   UNL     1     -34.876  -1.941 -11.816  1.00  0.00     0.140 A 
HETATM   34  N   UNL     1     -35.060  -1.869 -10.494  1.00  0.00    -0.306 N 
HETATM   35  N   UNL     1     -35.643  -0.682 -10.117  1.00  0.00    -0.308 N 
HETATM   36  C   UNL     1     -34.735  -2.878  -9.494  1.00  0.00     0.177 C 
HETATM   37  C   UNL     1     -35.819  -0.024 -11.253  1.00  0.00     0.138 A 
ATOM     38  HN  UNL     1     -35.886  -0.377  -9.175  1.00  0.00     0.186 HD
ENDBRANCH  30  32
ENDBRANCH   8  30
TORSDOF 6
ENDMDL
MODEL 18
REMARK VINA RESULT:    -8.626      3.356     10.749
REMARK INTER + INTRA:         -12.290
REMARK INTER:                 -11.331
REMARK INTRA:                  -0.959
REMARK UNBOUND:                -0.638
REMARK  6 active torsions:
REMARK  status: ('A' for Active; 'I' for Inactive)
REMARK    1  A    between atoms: N_1  and  C_32 
REMARK    2  A    between atoms: N_1  and  C_33 
REMARK    3  A    between atoms: C_6  and  C_9 
REMARK    4  A    between atoms: C_7  and  C_8 
REMARK       I    between atoms: C_8  and  N_28 
REMARK    5  A    between atoms: C_12  and  C_17 
REMARK       I    between atoms: C_17  and  N_21 
REMARK    6  A    between atoms: N_21  and  C_23 
ROOT
HETATM    1  N   UNL     1     -25.364   4.325 -16.976  1.00  0.00    -0.347 N 
ATOM      2  HN  UNL     1     -25.683   4.765 -16.113  1.00  0.00     0.166 HD
HETATM    3  C   UNL     1     -25.790   3.373 -19.105  1.00  0.00     0.119 A 
HETATM    4  C   UNL     1     -26.239   3.931 -17.911  1.00  0.00     0.054 A 
HETATM    5  C   UNL     1     -24.061   4.126 -17.204  1.00  0.00     0.145 A 
HETATM    6  N   UNL     1     -24.487   3.159 -19.348  1.00  0.00    -0.348 N 
ATOM      7  HN  UNL     1     -24.175   2.741 -20.224  1.00  0.00     0.167 HD
HETATM    8  C   UNL     1     -23.608   3.517 -18.393  1.00  0.00     0.138 A 
ENDROOT
BRANCH   4   9
HETATM    9  C   UNL     1     -27.671   4.052 -17.605  1.00  0.00    -0.032 C 
HETATM   10  C   UNL     1     -28.121   4.078 -16.318  1.00  0.00    -0.017 C 
HETATM   11  C   UNL     1     -29.575   4.100 -15.940  1.00  0.00     0.030 C 
HETATM   12  C   UNL     1     -30.456   4.501 -17.120  1.00  0.00     0.029 C 
HETATM   13  C   UNL     1     -30.051   3.754 -18.382  1.00  0.00     0.089 C 
HETATM   14  C   UNL     1     -28.623   4.132 -18.777  1.00  0.00     0.065 C 
BRANCH  13  15
HETATM   15  N   UNL     1     -30.958   4.080 -19.478  1.00  0.00    -0.352 N 
HETATM   16  C   UNL     1     -32.025   3.325 -19.772  1.00  0.00     0.252 C 
HETATM   17  O   UNL     1     -32.334   2.341 -19.104  1.00  0.00    -0.268 OA
ATOM     18  HN  UNL     1     -30.774   4.911 -20.040  1.00  0.00     0.163 HD
BRANCH  16  19
HETATM   19  C   UNL     1     -32.842   3.751 -20.945  1.00  0.00     0.032 A 
HETATM   20  C   UNL     1     -34.148   3.298 -21.122  1.00  0.00     0.017 A 
HETATM   21  C   UNL     1     -34.861   3.649 -22.256  1.00  0.00     0.001 A 
HETATM   22  C   UNL     1     -34.285   4.446 -23.222  1.00  0.00     0.000 A 
HETATM   23  C   UNL     1     -32.998   4.914 -23.047  1.00  0.00     0.001 A 
HETATM   24  C   UNL     1     -32.280   4.579 -21.912  1.00  0.00     0.017 A 
ENDBRANCH  16  19
ENDBRANCH  13  15
ENDBRANCH   4   9
BRANCH   5  25
HETATM   25  C   UNL     1     -23.135   4.592 -16.102  1.00  0.00     0.269 C 
HETATM   26  N   UNL     1     -23.184   5.895 -15.805  1.00  0.00    -0.365 N 
ATOM     27  HN2 UNL     1     -23.785   6.552 -16.303  1.00  0.00     0.159 HD
ATOM     28  HN1 UNL     1     -22.559   6.209 -15.063  1.00  0.00     0.159 HD
HETATM   29  O   UNL     1     -22.397   3.786 -15.491  1.00  0.00    -0.266 OA
ENDBRANCH   5  25
BRANCH   8  30
HETATM   30  N   UNL     1     -22.258   3.213 -18.606  1.00  0.00    -0.338 N 
ATOM     31  HN  UNL     1     -21.594   3.636 -17.958  1.00  0.00     0.167 HD
BRANCH  30  32
HETATM   32  C   UNL     1     -21.709   2.395 -19.605  1.00  0.00     0.068 A 
HETATM   33  C   UNL     1     -20.778   2.628 -20.573  1.00  0.00     0.140 A 
HETATM   34  N   UNL     1     -20.551   1.454 -21.171  1.00  0.00    -0.306 N 
HETATM   35  N   UNL     1     -21.310   0.443 -20.630  1.00  0.00    -0.308 N 
HETATM   36  C   UNL     1     -19.646   1.181 -22.279  1.00  0.00     0.177 C 
HETATM   37  C   UNL     1     -22.020   1.033 -19.680  1.00  0.00     0.138 A 
ATOM     38  HN  UNL     1     -21.324  -0.540 -20.900  1.00  0.00     0.186 HD
ENDBRANCH  30  32
ENDBRANCH   8  30
TORSDOF 6
ENDMDL
MODEL 19
REMARK VINA RESULT:    -8.577      6.424     10.353
REMARK INTER + INTRA:         -12.224
REMARK INTER:                 -11.109
REMARK INTRA:                  -1.115
REMARK UNBOUND:                -0.638
REMARK  6 active torsions:
REMARK  status: ('A' for Active; 'I' for Inactive)
REMARK    1  A    between atoms: N_1  and  C_32 
REMARK    2  A    between atoms: N_1  and  C_33 
REMARK    3  A    between atoms: C_6  and  C_9 
REMARK    4  A    between atoms: C_7  and  C_8 
REMARK       I    between atoms: C_8  and  N_28 
REMARK    5  A    between atoms: C_12  and  C_17 
REMARK       I    between atoms: C_17  and  N_21 
REMARK    6  A    between atoms: N_21  and  C_23 
ROOT
HETATM    1  N   UNL     1     -32.241   2.953 -13.737  1.00  0.00    -0.347 N 
ATOM      2  HN  UNL     1     -31.630   3.692 -13.389  1.00  0.00     0.166 HD
HETATM    3  C   UNL     1     -33.027   1.554 -15.482  1.00  0.00     0.119 A 
HETATM    4  C   UNL     1     -32.221   2.595 -15.028  1.00  0.00     0.054 A 
HETATM    5  C   UNL     1     -33.084   2.317 -12.916  1.00  0.00     0.145 A 
HETATM    6  N   UNL     1     -33.883   0.909 -14.674  1.00  0.00    -0.348 N 
ATOM      7  HN  UNL     1     -34.473   0.154 -15.025  1.00  0.00     0.167 HD
HETATM    8  C   UNL     1     -33.935   1.294 -13.386  1.00  0.00     0.138 A 
ENDROOT
BRANCH   4   9
HETATM    9  C   UNL     1     -31.375   3.373 -15.942  1.00  0.00    -0.032 C 
HETATM   10  C   UNL     1     -30.265   4.029 -15.497  1.00  0.00    -0.017 C 
HETATM   11  C   UNL     1     -29.416   4.919 -16.360  1.00  0.00     0.030 C 
HETATM   12  C   UNL     1     -29.682   4.682 -17.843  1.00  0.00     0.029 C 
HETATM   13  C   UNL     1     -31.176   4.616 -18.127  1.00  0.00     0.089 C 
HETATM   14  C   UNL     1     -31.794   3.425 -17.395  1.00  0.00     0.065 C 
BRANCH  13  15
HETATM   15  N   UNL     1     -31.416   4.480 -19.560  1.00  0.00    -0.352 N 
HETATM   16  C   UNL     1     -32.552   4.892 -20.137  1.00  0.00     0.252 C 
HETATM   17  O   UNL     1     -33.441   5.455 -19.503  1.00  0.00    -0.268 OA
ATOM     18  HN  UNL     1     -30.693   4.058 -20.142  1.00  0.00     0.163 HD
BRANCH  16  19
HETATM   19  C   UNL     1     -32.680   4.652 -21.604  1.00  0.00     0.032 A 
HETATM   20  C   UNL     1     -33.852   4.136 -22.155  1.00  0.00     0.017 A 
HETATM   21  C   UNL     1     -33.921   3.854 -23.509  1.00  0.00     0.001 A 
HETATM   22  C   UNL     1     -32.832   4.076 -24.323  1.00  0.00     0.000 A 
HETATM   23  C   UNL     1     -31.674   4.603 -23.790  1.00  0.00     0.001 A 
HETATM   24  C   UNL     1     -31.597   4.900 -22.441  1.00  0.00     0.017 A 
ENDBRANCH  16  19
ENDBRANCH  13  15
ENDBRANCH   4   9
BRANCH   5  25
HETATM   25  C   UNL     1     -33.054   2.779 -11.475  1.00  0.00     0.269 C 
HETATM   26  N   UNL     1     -31.859   2.754 -10.875  1.00  0.00    -0.365 N 
ATOM     27  HN2 UNL     1     -31.015   2.420 -11.340  1.00  0.00     0.159 HD
ATOM     28  HN1 UNL     1     -31.839   3.066  -9.904  1.00  0.00     0.159 HD
HETATM   29  O   UNL     1     -34.090   3.189 -10.904  1.00  0.00    -0.266 OA
ENDBRANCH   5  25
BRANCH   8  30
HETATM   30  N   UNL     1     -34.891   0.685 -12.563  1.00  0.00    -0.338 N 
ATOM     31  HN  UNL     1     -35.848   1.025 -12.658  1.00  0.00     0.167 HD
BRANCH  30  32
HETATM   32  C   UNL     1     -34.690  -0.336 -11.624  1.00  0.00     0.068 A 
HETATM   33  C   UNL     1     -35.461  -0.812 -10.606  1.00  0.00     0.140 A 
HETATM   34  N   UNL     1     -34.819  -1.875 -10.108  1.00  0.00    -0.306 N 
HETATM   35  N   UNL     1     -33.636  -2.117 -10.765  1.00  0.00    -0.308 N 
HETATM   36  C   UNL     1     -35.231  -2.723  -8.997  1.00  0.00     0.177 C 
HETATM   37  C   UNL     1     -33.564  -1.165 -11.682  1.00  0.00     0.138 A 
ATOM     38  HN  UNL     1     -32.964  -2.863 -10.585  1.00  0.00     0.186 HD
ENDBRANCH  30  32
ENDBRANCH   8  30
TORSDOF 6
ENDMDL
MODEL 20
REMARK VINA RESULT:    -8.559      3.649      6.037
REMARK INTER + INTRA:         -12.200
REMARK INTER:                 -11.170
REMARK INTRA:                  -1.029
REMARK UNBOUND:                -0.638
REMARK  6 active torsions:
REMARK  status: ('A' for Active; 'I' for Inactive)
REMARK    1  A    between atoms: N_1  and  C_32 
REMARK    2  A    between atoms: N_1  and  C_33 
REMARK    3  A    between atoms: C_6  and  C_9 
REMARK    4  A    between atoms: C_7  and  C_8 
REMARK       I    between atoms: C_8  and  N_28 
REMARK    5  A    between atoms: C_12  and  C_17 
REMARK       I    between atoms: C_17  and  N_21 
REMARK    6  A    between atoms: N_21  and  C_23 
ROOT
HETATM    1  N   UNL     1     -36.109   4.251 -22.670  1.00  0.00    -0.347 N 
ATOM      2  HN  UNL     1     -35.840   4.147 -21.691  1.00  0.00     0.166 HD
HETATM    3  C   UNL     1     -35.560   4.468 -24.966  1.00  0.00     0.119 A 
HETATM    4  C   UNL     1     -35.181   4.372 -23.629  1.00  0.00     0.054 A 
HETATM    5  C   UNL     1     -37.397   4.268 -23.029  1.00  0.00     0.145 A 
HETATM    6  N   UNL     1     -36.847   4.494 -25.344  1.00  0.00    -0.348 N 
ATOM      7  HN  UNL     1     -37.108   4.573 -26.326  1.00  0.00     0.167 HD
HETATM    8  C   UNL     1     -37.782   4.413 -24.379  1.00  0.00     0.138 A 
ENDROOT
BRANCH   4   9
HETATM    9  C   UNL     1     -33.775   4.463 -23.215  1.00  0.00    -0.032 C 
HETATM   10  C   UNL     1     -32.774   4.597 -24.131  1.00  0.00    -0.017 C 
HETATM   11  C   UNL     1     -31.313   4.596 -23.781  1.00  0.00     0.030 C 
HETATM   12  C   UNL     1     -31.093   4.844 -22.291  1.00  0.00     0.029 C 
HETATM   13  C   UNL     1     -32.035   3.994 -21.451  1.00  0.00     0.089 C 
HETATM   14  C   UNL     1     -33.485   4.390 -21.732  1.00  0.00     0.065 C 
BRANCH  13  15
HETATM   15  N   UNL     1     -31.752   4.173 -20.031  1.00  0.00    -0.352 N 
HETATM   16  C   UNL     1     -30.719   3.572 -19.427  1.00  0.00     0.252 C 
HETATM   17  O   UNL     1     -29.917   2.874 -20.042  1.00  0.00    -0.268 OA
ATOM     18  HN  UNL     1     -32.361   4.777 -19.480  1.00  0.00     0.163 HD
BRANCH  16  19
HETATM   19  C   UNL     1     -30.573   3.810 -17.961  1.00  0.00     0.032 A 
HETATM   20  C   UNL     1     -29.573   4.641 -17.458  1.00  0.00     0.017 A 
HETATM   21  C   UNL     1     -29.411   4.788 -16.090  1.00  0.00     0.001 A 
HETATM   22  C   UNL     1     -30.233   4.112 -15.215  1.00  0.00     0.000 A 
HETATM   23  C   UNL     1     -31.237   3.301 -15.704  1.00  0.00     0.001 A 
HETATM   24  C   UNL     1     -31.415   3.155 -17.068  1.00  0.00     0.017 A 
ENDBRANCH  16  19
ENDBRANCH  13  15
ENDBRANCH   4   9
BRANCH   5  25
HETATM   25  C   UNL     1     -38.386   4.131 -21.892  1.00  0.00     0.269 C 
HETATM   26  N   UNL     1     -37.911   3.599 -20.761  1.00  0.00    -0.365 N 
ATOM     27  HN2 UNL     1     -36.948   3.275 -20.665  1.00  0.00     0.159 HD
ATOM     28  HN1 UNL     1     -38.577   3.506 -19.994  1.00  0.00     0.159 HD
HETATM   29  O   UNL     1     -39.568   4.528 -22.008  1.00  0.00    -0.266 OA
ENDBRANCH   5  25
BRANCH   8  30
HETATM   30  N   UNL     1     -39.124   4.531 -24.762  1.00  0.00    -0.338 N 
ATOM     31  HN  UNL     1     -39.724   3.735 -24.547  1.00  0.00     0.167 HD
BRANCH  30  32
HETATM   32  C   UNL     1     -39.741   5.613 -25.405  1.00  0.00     0.068 A 
HETATM   33  C   UNL     1     -40.619   5.684 -26.445  1.00  0.00     0.140 A 
HETATM   34  N   UNL     1     -40.965   6.971 -26.563  1.00  0.00    -0.306 N 
HETATM   35  N   UNL     1     -40.336   7.762 -25.631  1.00  0.00    -0.308 N 
HETATM   36  C   UNL     1     -41.872   7.562 -27.538  1.00  0.00     0.177 C 
HETATM   37  C   UNL     1     -39.584   6.922 -24.936  1.00  0.00     0.138 A 
ATOM     38  HN  UNL     1     -40.428   8.770 -25.504  1.00  0.00     0.186 HD
ENDBRANCH  30  32
ENDBRANCH   8  30
TORSDOF 6
ENDMDL
