REMARK  4 active torsions:
REMARK  status: ('A' for Active; 'I' for Inactive)
REMARK    1  A    between atoms: C_7  and  C_8 
REMARK    2  A    between atoms: C_8  and  N_29 
REMARK    3  A    between atoms: C_14  and  C_22 
REMARK    4  A    between atoms: C_22  and  C_23 
ROOT
HETATM    1  C   UNL     1      19.939 -12.022 -16.981  1.00  0.00     0.015 A 
HETATM    2  C   UNL     1      18.947 -12.956 -17.325  1.00  0.00     0.004 A 
HETATM    3  C   UNL     1      17.933 -13.306 -16.420  1.00  0.00     0.039 A 
HETATM    4  C   UNL     1      17.957 -12.683 -15.181  1.00  0.00     0.096 A 
HETATM    5  C   UNL     1      16.835 -11.886 -13.224  1.00  0.00     0.203 C 
HETATM    6  C   UNL     1      18.166 -11.380 -12.673  1.00  0.00     0.143 C 
HETATM    7  C   UNL     1      20.718 -10.542 -15.100  1.00  0.00     0.050 A 
HETATM    8  C   UNL     1      20.147 -10.379 -13.889  1.00  0.00     0.024 A 
HETATM    9  C   UNL     1      20.591  -9.488 -12.729  1.00  0.00     0.069 C 
HETATM   10  C   UNL     1      18.939 -11.801 -14.926  1.00  0.00     0.080 A 
HETATM   11  C   UNL     1      19.937 -11.446 -15.767  1.00  0.00     0.010 A 
HETATM   12  N   UNL     1      19.071 -11.158 -13.782  1.00  0.00    -0.338 N 
HETATM   13  O   UNL     1      17.010 -12.955 -14.198  1.00  0.00    -0.347 OA
ENDROOT
BRANCH   7  14
HETATM   14  C   UNL     1      21.823  -9.847 -15.537  1.00  0.00     0.196 C 
HETATM   15  O   UNL     1      21.988  -8.662 -15.228  1.00  0.00    -0.287 OA
BRANCH  14  16
HETATM   16  C   UNL     1      22.667 -10.378 -16.526  1.00  0.00     0.026 A 
HETATM   17  C   UNL     1      23.430 -11.561 -16.406  1.00  0.00    -0.012 A 
HETATM   18  C   UNL     1      24.229 -11.980 -17.478  1.00  0.00    -0.025 A 
HETATM   19  C   UNL     1      23.405 -12.331 -15.241  1.00  0.00     0.013 A 
HETATM   20  C   UNL     1      24.986 -13.153 -17.393  1.00  0.00     0.012 A 
HETATM   21  C   UNL     1      24.279 -11.238 -18.653  1.00  0.00     0.012 A 
HETATM   22  C   UNL     1      24.953 -13.909 -16.227  1.00  0.00     0.001 A 
HETATM   23  C   UNL     1      24.165 -13.498 -15.155  1.00  0.00     0.001 A 
HETATM   24  C   UNL     1      23.541 -10.070 -18.767  1.00  0.00     0.002 A 
HETATM   25  C   UNL     1      22.744  -9.647 -17.708  1.00  0.00     0.016 A 
ENDBRANCH  14  16
ENDBRANCH   7  14
BRANCH   6  26
HETATM   26  C   UNL     1      18.810 -12.418 -11.723  1.00  0.00     0.300 C 
BRANCH  26  27
HETATM   27  N   UNL     1      19.269 -13.604 -12.469  1.00  0.00     0.094 N 
HETATM   28  C   UNL     1      18.671 -14.878 -12.018  1.00  0.00     0.298 C 
HETATM   29  C   UNL     1      19.065 -15.969 -13.015  1.00  0.00     0.198 C 
HETATM   30  O   UNL     1      20.511 -16.058 -13.113  1.00  0.00    -0.388 OA
HETATM   31  C   UNL     1      21.117 -14.810 -13.486  1.00  0.00     0.198 C 
HETATM   32  C   UNL     1      20.726 -13.728 -12.492  1.00  0.00     0.298 C 
ENDBRANCH  26  27
ENDBRANCH   6  26
TORSDOF 4
