REMARK  4 active torsions:
REMARK  status: ('A' for Active; 'I' for Inactive)
REMARK    1  A    between atoms: C_7  and  C_8 
REMARK    2  A    between atoms: C_8  and  N_29 
REMARK    3  A    between atoms: C_14  and  C_22 
REMARK    4  A    between atoms: C_22  and  C_23 
ROOT
HETATM    1  C   UNL     1      -2.477  -0.307   1.427  1.00  0.00     0.015 A 
HETATM    2  C   UNL     1      -2.828  -1.620   1.825  1.00  0.00     0.004 A 
HETATM    3  C   UNL     1      -1.838  -2.519   2.294  1.00  0.00     0.039 A 
HETATM    4  C   UNL     1      -0.502  -2.091   2.383  1.00  0.00     0.096 A 
HETATM    5  C   UNL     1       1.821  -2.338   3.186  1.00  0.00     0.203 C 
HETATM    6  C   UNL     1       2.226  -1.116   2.295  1.00  0.00     0.143 C 
HETATM    7  C   UNL     1      -0.428   1.201   1.118  1.00  0.00     0.050 A 
HETATM    8  C   UNL     1       0.921   0.938   1.427  1.00  0.00     0.024 A 
HETATM    9  C   UNL     1       2.067   1.865   1.157  1.00  0.00     0.069 C 
HETATM   10  C   UNL     1      -0.201  -0.806   1.993  1.00  0.00     0.080 A 
HETATM   11  C   UNL     1      -1.130   0.062   1.505  1.00  0.00     0.010 A 
HETATM   12  N   UNL     1       1.039  -0.306   1.963  1.00  0.00    -0.338 N 
HETATM   13  O   UNL     1       0.546  -2.905   2.821  1.00  0.00    -0.347 OA
ENDROOT
BRANCH   7  14
HETATM   14  C   UNL     1      -0.946   2.361   0.357  1.00  0.00     0.196 C 
HETATM   15  O   UNL     1      -0.365   3.475   0.458  1.00  0.00    -0.287 OA
BRANCH  14  16
HETATM   16  C   UNL     1      -2.129   2.250  -0.529  1.00  0.00     0.026 A 
HETATM   17  C   UNL     1      -3.171   3.174  -0.350  1.00  0.00     0.016 A 
HETATM   18  C   UNL     1      -4.342   3.084  -1.098  1.00  0.00     0.002 A 
HETATM   19  C   UNL     1      -4.499   2.072  -2.042  1.00  0.00     0.012 A 
HETATM   20  C   UNL     1      -3.470   1.145  -2.261  1.00  0.00    -0.025 A 
HETATM   21  C   UNL     1      -2.258   1.241  -1.525  1.00  0.00    -0.012 A 
HETATM   22  C   UNL     1      -3.638   0.129  -3.214  1.00  0.00     0.012 A 
HETATM   23  C   UNL     1      -1.218   0.334  -1.825  1.00  0.00     0.013 A 
HETATM   24  C   UNL     1      -1.406  -0.677  -2.769  1.00  0.00     0.001 A 
HETATM   25  C   UNL     1      -2.613  -0.782  -3.457  1.00  0.00     0.001 A 
ENDBRANCH  14  16
ENDBRANCH   7  14
BRANCH   6  26
HETATM   26  C   UNL     1       2.983  -1.557   1.018  1.00  0.00     0.300 C 
BRANCH  26  27
HETATM   27  N   UNL     1       2.051  -1.829  -0.107  1.00  0.00     0.094 N 
HETATM   28  C   UNL     1       2.492  -1.206  -1.374  1.00  0.00     0.298 C 
HETATM   29  C   UNL     1       3.648  -1.994  -2.006  1.00  0.00     0.198 C 
HETATM   30  O   UNL     1       3.250  -3.326  -2.259  1.00  0.00    -0.388 OA
HETATM   31  C   UNL     1       2.951  -3.973  -1.037  1.00  0.00     0.198 C 
HETATM   32  C   UNL     1       1.788  -3.271  -0.305  1.00  0.00     0.298 C 
ENDBRANCH  26  27
ENDBRANCH   6  26
TORSDOF 4
