MODEL 1
REMARK VINA RESULT:    -9.191      0.000      0.000
REMARK INTER + INTRA:         -20.746
REMARK INTER:                 -18.056
REMARK INTRA:                  -2.690
REMARK UNBOUND:                -2.690
REMARK  20 active torsions:
REMARK  status: ('A' for Active; 'I' for Inactive)
REMARK       I    between atoms: N_1  and  C_20 
REMARK    1  A    between atoms: N_1  and  C_9 
REMARK    2  A    between atoms: C_3  and  O_65 
REMARK    3  A    between atoms: C_4  and  C_7 
REMARK       I    between atoms: N_5  and  C_20 
REMARK    4  A    between atoms: N_5  and  C_17 
REMARK    5  A    between atoms: C_9  and  C_26 
REMARK    6  A    between atoms: O_10  and  C_34 
REMARK    7  A    between atoms: C_12  and  N_14 
REMARK    8  A    between atoms: C_13  and  O_18 
REMARK    9  A    between atoms: C_15  and  C_17 
REMARK   10  A    between atoms: N_21  and  C_29 
REMARK   11  A    between atoms: N_21  and  C_40 
REMARK   12  A    between atoms: N_21  and  C_30 
REMARK   13  A    between atoms: N_22  and  C_26 
REMARK   14  A    between atoms: C_28  and  C_29 
REMARK   15  A    between atoms: C_30  and  C_31 
REMARK   16  A    between atoms: C_32  and  N_55 
REMARK   17  A    between atoms: C_33  and  O_67 
REMARK   18  A    between atoms: C_39  and  N_62 
REMARK   19  A    between atoms: C_40  and  C_41 
REMARK   20  A    between atoms: C_45  and  N_52 
ROOT
HETATM    1  C   UNL     1      22.304   6.210  13.578  1.00  0.00     0.168 A 
HETATM    2  N   UNL     1      21.540   7.208  12.988  1.00  0.00    -0.279 N 
HETATM    3  C   UNL     1      21.611   5.410  11.727  1.00  0.00     0.123 A 
HETATM    4  C   UNL     1      21.091   6.690  11.799  1.00  0.00     0.143 A 
HETATM    5  C   UNL     1      20.113   6.497   9.838  1.00  0.00     0.183 A 
HETATM    6  C   UNL     1      21.324   4.670  10.566  1.00  0.00     0.131 A 
HETATM    7  N   UNL     1      22.358   5.107  12.857  1.00  0.00    -0.329 N 
ATOM      8  HN  UNL     1      22.838   4.234  13.078  1.00  0.00     0.168 HD
HETATM    9  N   UNL     1      20.326   7.294  10.885  1.00  0.00    -0.336 N 
ATOM     10  HN  UNL     1      19.954   8.240  10.976  1.00  0.00     0.168 HD
HETATM   11  N   UNL     1      20.545   5.253   9.634  1.00  0.00    -0.337 N 
ATOM     12  HN  UNL     1      20.289   4.749   8.785  1.00  0.00     0.168 HD
ENDROOT
BRANCH   1  13
HETATM   13  C   UNL     1      22.976   6.396  14.812  1.00  0.00    -0.028 C 
HETATM   14  C   UNL     1      23.643   6.675  15.759  1.00  0.00    -0.068 C 
BRANCH  14  15
HETATM   15  C   UNL     1      24.355   6.907  17.029  1.00  0.00     0.367 C 
BRANCH  15  16
HETATM   16  N   UNL     1      24.299   8.293  17.507  1.00  0.00     0.111 N 
BRANCH  16  17
HETATM   17  C   UNL     1      23.628   9.176  16.554  1.00  0.00     0.386 C 
BRANCH  17  18
HETATM   18  C   UNL     1      22.937  10.402  17.109  1.00  0.00     0.202 C 
HETATM   19  O   UNL     1      23.721  11.383  17.488  1.00  0.00    -0.647 OA
HETATM   20  O   UNL     1      21.723  10.461  17.204  1.00  0.00    -0.647 OA
ENDBRANCH  17  18
ENDBRANCH  16  17
BRANCH  16  21
HETATM   21  C   UNL     1      23.810   8.453  18.887  1.00  0.00     0.308 C 
BRANCH  21  22
HETATM   22  C   UNL     1      24.976   8.768  19.800  1.00  0.00     0.184 C 
HETATM   23  C   UNL     1      24.804   8.226  21.215  1.00  0.00     0.182 C 
HETATM   24  C   UNL     1      25.763   9.116  22.022  1.00  0.00     0.198 C 
HETATM   25  C   UNL     1      25.865  10.379  21.158  1.00  0.00     0.262 C 
HETATM   26  O   UNL     1      25.063  10.193  19.996  1.00  0.00    -0.354 OA
BRANCH  23  27
HETATM   27  O   UNL     1      25.228   6.879  21.280  1.00  0.00    -0.390 OA
ATOM     28  HO  UNL     1      25.024   6.437  20.464  1.00  0.00     0.210 HD
ENDBRANCH  23  27
BRANCH  24  29
HETATM   29  O   UNL     1      27.069   8.550  22.124  1.00  0.00    -0.388 OA
ATOM     30  HO  UNL     1      26.997   7.740  22.615  1.00  0.00     0.210 HD
ENDBRANCH  24  29
BRANCH  25  31
HETATM   31  N   UNL     1      25.477  11.600  21.819  1.00  0.00    -0.297 N 
HETATM   32  C   UNL     1      25.319  11.846  23.162  1.00  0.00     0.188 A 
HETATM   33  N   UNL     1      25.061  13.102  23.446  1.00  0.00    -0.346 N 
HETATM   34  C   UNL     1      25.045  13.723  22.203  1.00  0.00     0.122 A 
ATOM     35  HN  UNL     1      24.909  13.522  24.363  1.00  0.00     0.167 HD
HETATM   36  C   UNL     1      24.858  15.062  21.809  1.00  0.00     0.131 A 
HETATM   37  C   UNL     1      25.288  12.805  21.194  1.00  0.00     0.142 A 
HETATM   38  N   UNL     1      24.947  15.343  20.492  1.00  0.00    -0.337 N 
HETATM   39  C   UNL     1      25.171  14.350  19.631  1.00  0.00     0.183 A 
ATOM     40  HN  UNL     1      24.846  16.302  20.160  1.00  0.00     0.168 HD
HETATM   41  N   UNL     1      25.356  13.057  19.877  1.00  0.00    -0.336 N 
ATOM     42  HN  UNL     1      25.525  12.350  19.162  1.00  0.00     0.168 HD
BRANCH  36  43
HETATM   43  N   UNL     1      24.571  16.063  22.658  1.00  0.00    -0.383 N 
ATOM     44  HN2 UNL     1      24.136  16.943  22.379  1.00  0.00     0.157 HD
ATOM     45  HN1 UNL     1      24.818  15.951  23.641  1.00  0.00     0.157 HD
ENDBRANCH  36  43
ENDBRANCH  25  31
ENDBRANCH  21  22
ENDBRANCH  16  21
ENDBRANCH  15  16
ENDBRANCH  14  15
ENDBRANCH   1  13
BRANCH   2  46
HETATM   46  C   UNL     1      21.208   8.533  13.479  1.00  0.00     0.263 C 
HETATM   47  C   UNL     1      21.818   9.713  12.729  1.00  0.00     0.198 C 
HETATM   48  C   UNL     1      20.955  10.818  13.315  1.00  0.00     0.181 C 
HETATM   49  C   UNL     1      19.573  10.170  13.281  1.00  0.00     0.173 C 
HETATM   50  O   UNL     1      19.810   8.742  13.427  1.00  0.00    -0.354 OA
BRANCH  47  51
HETATM   51  O   UNL     1      23.199   9.894  13.003  1.00  0.00    -0.388 OA
ATOM     52  HO  UNL     1      23.746   9.214  12.629  1.00  0.00     0.210 HD
ENDBRANCH  47  51
BRANCH  48  53
HETATM   53  O   UNL     1      21.377  11.201  14.623  1.00  0.00    -0.390 OA
ATOM     54  HO  UNL     1      21.356  10.477  15.237  1.00  0.00     0.210 HD
ENDBRANCH  48  53
BRANCH  49  55
HETATM   55  C   UNL     1      18.859  10.418  11.966  1.00  0.00     0.159 C 
BRANCH  55  56
HETATM   56  N   UNL     1      17.888   9.411  11.593  1.00  0.00    -0.341 N 
HETATM   57  C   UNL     1      16.697   9.735  11.054  1.00  0.00     0.316 C 
HETATM   58  O   UNL     1      16.342  10.904  10.900  1.00  0.00    -0.247 OA
HETATM   59  N   UNL     1      15.912   8.678  10.734  1.00  0.00    -0.342 N 
ATOM     60  HN  UNL     1      16.196   7.747  11.042  1.00  0.00     0.164 HD
ATOM     61  HN  UNL     1      18.112   8.428  11.743  1.00  0.00     0.164 HD
BRANCH  59  62
HETATM   62  C   UNL     1      14.679   8.814   9.971  1.00  0.00     0.151 C 
BRANCH  62  63
HETATM   63  C   UNL     1      14.996   8.935   8.498  1.00  0.00     0.249 C 
BRANCH  63  64
HETATM   64  N   UNL     1      14.403  10.153   7.921  1.00  0.00    -0.078 N 
ATOM     65  HN3 UNL     1      13.384  10.105   7.910  1.00  0.00     0.274 HD
ATOM     66  HN2 UNL     1      14.516  10.954   8.541  1.00  0.00     0.274 HD
ATOM     67  HN1 UNL     1      14.777  10.343   6.991  1.00  0.00     0.274 HD
ENDBRANCH  63  64
ENDBRANCH  62  63
ENDBRANCH  59  62
ENDBRANCH  55  56
ENDBRANCH  49  55
ENDBRANCH   2  46
BRANCH   6  68
HETATM   68  N   UNL     1      21.825   3.455  10.312  1.00  0.00    -0.383 N 
ATOM     69  HN2 UNL     1      22.728   3.389   9.843  1.00  0.00     0.157 HD
ATOM     70  HN1 UNL     1      21.377   2.584  10.597  1.00  0.00     0.157 HD
ENDBRANCH   6  68
TORSDOF 20
ENDMDL
MODEL 2
REMARK VINA RESULT:    -8.785      2.893     11.934
REMARK INTER + INTRA:         -19.948
REMARK INTER:                 -15.457
REMARK INTRA:                  -4.491
REMARK UNBOUND:                -2.690
REMARK  20 active torsions:
REMARK  status: ('A' for Active; 'I' for Inactive)
REMARK       I    between atoms: N_1  and  C_20 
REMARK    1  A    between atoms: N_1  and  C_9 
REMARK    2  A    between atoms: C_3  and  O_65 
REMARK    3  A    between atoms: C_4  and  C_7 
REMARK       I    between atoms: N_5  and  C_20 
REMARK    4  A    between atoms: N_5  and  C_17 
REMARK    5  A    between atoms: C_9  and  C_26 
REMARK    6  A    between atoms: O_10  and  C_34 
REMARK    7  A    between atoms: C_12  and  N_14 
REMARK    8  A    between atoms: C_13  and  O_18 
REMARK    9  A    between atoms: C_15  and  C_17 
REMARK   10  A    between atoms: N_21  and  C_29 
REMARK   11  A    between atoms: N_21  and  C_40 
REMARK   12  A    between atoms: N_21  and  C_30 
REMARK   13  A    between atoms: N_22  and  C_26 
REMARK   14  A    between atoms: C_28  and  C_29 
REMARK   15  A    between atoms: C_30  and  C_31 
REMARK   16  A    between atoms: C_32  and  N_55 
REMARK   17  A    between atoms: C_33  and  O_67 
REMARK   18  A    between atoms: C_39  and  N_62 
REMARK   19  A    between atoms: C_40  and  C_41 
REMARK   20  A    between atoms: C_45  and  N_52 
ROOT
HETATM    1  C   UNL     1      18.879  11.039  12.963  1.00  0.00     0.168 A 
HETATM    2  N   UNL     1      19.699  10.237  13.744  1.00  0.00    -0.279 N 
HETATM    3  C   UNL     1      20.874  11.697  12.598  1.00  0.00     0.123 A 
HETATM    4  C   UNL     1      20.982  10.664  13.512  1.00  0.00     0.143 A 
HETATM    5  C   UNL     1      23.176  10.818  13.560  1.00  0.00     0.183 A 
HETATM    6  C   UNL     1      22.072  12.288  12.160  1.00  0.00     0.131 A 
HETATM    7  N   UNL     1      19.547  11.940  12.270  1.00  0.00    -0.329 N 
ATOM      8  HN  UNL     1      19.176  12.652  11.640  1.00  0.00     0.168 HD
HETATM    9  N   UNL     1      22.110  10.178  14.039  1.00  0.00    -0.336 N 
ATOM     10  HN  UNL     1      22.150   9.417  14.717  1.00  0.00     0.168 HD
HETATM   11  N   UNL     1      23.223  11.823  12.685  1.00  0.00    -0.337 N 
ATOM     12  HN  UNL     1      24.117  12.234  12.417  1.00  0.00     0.168 HD
ENDROOT
BRANCH   1  13
HETATM   13  C   UNL     1      17.473  10.864  12.907  1.00  0.00    -0.028 C 
HETATM   14  C   UNL     1      16.322  10.639  12.696  1.00  0.00    -0.068 C 
BRANCH  14  15
HETATM   15  C   UNL     1      14.867  10.425  12.610  1.00  0.00     0.367 C 
BRANCH  15  16
HETATM   16  N   UNL     1      14.470   9.322  11.727  1.00  0.00     0.111 N 
BRANCH  16  17
HETATM   17  C   UNL     1      14.108   8.121  12.479  1.00  0.00     0.386 C 
BRANCH  17  18
HETATM   18  C   UNL     1      15.233   7.221  12.940  1.00  0.00     0.202 C 
HETATM   19  O   UNL     1      15.648   7.404  14.171  1.00  0.00    -0.647 OA
HETATM   20  O   UNL     1      15.726   6.388  12.200  1.00  0.00    -0.647 OA
ENDBRANCH  17  18
ENDBRANCH  16  17
BRANCH  16  21
HETATM   21  C   UNL     1      13.481   9.678  10.696  1.00  0.00     0.308 C 
BRANCH  21  22
HETATM   22  C   UNL     1      14.122   9.573   9.328  1.00  0.00     0.184 C 
HETATM   23  C   UNL     1      13.478   8.521   8.434  1.00  0.00     0.182 C 
HETATM   24  C   UNL     1      14.594   8.230   7.417  1.00  0.00     0.198 C 
HETATM   25  C   UNL     1      15.862   8.633   8.180  1.00  0.00     0.262 C 
HETATM   26  O   UNL     1      15.479   9.109   9.466  1.00  0.00    -0.354 OA
BRANCH  23  27
HETATM   27  O   UNL     1      12.353   9.062   7.770  1.00  0.00    -0.390 OA
ATOM     28  HO  UNL     1      11.678   9.277   8.403  1.00  0.00     0.210 HD
ENDBRANCH  23  27
BRANCH  24  29
HETATM   29  O   UNL     1      14.500   9.057   6.259  1.00  0.00    -0.388 OA
ATOM     30  HO  UNL     1      14.169   9.904   6.532  1.00  0.00     0.210 HD
ENDBRANCH  24  29
BRANCH  25  31
HETATM   31  N   UNL     1      16.841   7.584   8.327  1.00  0.00    -0.297 N 
HETATM   32  C   UNL     1      16.954   6.401   7.638  1.00  0.00     0.188 A 
HETATM   33  N   UNL     1      18.027   5.709   7.940  1.00  0.00    -0.346 N 
HETATM   34  C   UNL     1      18.662   6.489   8.899  1.00  0.00     0.122 A 
ATOM     35  HN  UNL     1      18.326   4.810   7.561  1.00  0.00     0.167 HD
HETATM   36  C   UNL     1      19.870   6.335   9.607  1.00  0.00     0.131 A 
HETATM   37  C   UNL     1      17.934   7.640   9.153  1.00  0.00     0.142 A 
HETATM   38  N   UNL     1      20.226   7.323  10.455  1.00  0.00    -0.337 N 
HETATM   39  C   UNL     1      19.413   8.369  10.610  1.00  0.00     0.183 A 
ATOM     40  HN  UNL     1      21.104   7.270  10.971  1.00  0.00     0.168 HD
HETATM   41  N   UNL     1      18.254   8.622  10.010  1.00  0.00    -0.336 N 
ATOM     42  HN  UNL     1      17.684   9.451  10.180  1.00  0.00     0.168 HD
BRANCH  36  43
HETATM   43  N   UNL     1      20.668   5.260   9.508  1.00  0.00    -0.383 N 
ATOM     44  HN2 UNL     1      20.505   4.380   9.997  1.00  0.00     0.157 HD
ATOM     45  HN1 UNL     1      21.501   5.326   8.923  1.00  0.00     0.157 HD
ENDBRANCH  36  43
ENDBRANCH  25  31
ENDBRANCH  21  22
ENDBRANCH  16  21
ENDBRANCH  15  16
ENDBRANCH  14  15
ENDBRANCH   1  13
BRANCH   2  46
HETATM   46  C   UNL     1      19.346   9.173  14.668  1.00  0.00     0.263 C 
HETATM   47  C   UNL     1      19.485   7.745  14.151  1.00  0.00     0.198 C 
HETATM   48  C   UNL     1      19.380   7.017  15.480  1.00  0.00     0.181 C 
HETATM   49  C   UNL     1      20.264   7.888  16.370  1.00  0.00     0.173 C 
HETATM   50  O   UNL     1      20.163   9.232  15.822  1.00  0.00    -0.354 OA
BRANCH  47  51
HETATM   51  O   UNL     1      18.455   7.378  13.244  1.00  0.00    -0.388 OA
ATOM     52  HO  UNL     1      18.060   8.124  12.809  1.00  0.00     0.210 HD
ENDBRANCH  47  51
BRANCH  48  53
HETATM   53  O   UNL     1      18.033   6.911  15.938  1.00  0.00    -0.390 OA
ATOM     54  HO  UNL     1      17.901   7.337  16.776  1.00  0.00     0.210 HD
ENDBRANCH  48  53
BRANCH  49  55
HETATM   55  C   UNL     1      21.717   7.451  16.334  1.00  0.00     0.159 C 
BRANCH  55  56
HETATM   56  N   UNL     1      22.629   8.284  17.088  1.00  0.00    -0.341 N 
HETATM   57  C   UNL     1      23.270   7.828  18.182  1.00  0.00     0.316 C 
HETATM   58  O   UNL     1      23.074   6.702  18.637  1.00  0.00    -0.247 OA
HETATM   59  N   UNL     1      24.111   8.721  18.761  1.00  0.00    -0.342 N 
ATOM     60  HN  UNL     1      24.098   9.687  18.433  1.00  0.00     0.164 HD
ATOM     61  HN  UNL     1      22.791   9.243  16.783  1.00  0.00     0.164 HD
BRANCH  59  62
HETATM   62  C   UNL     1      25.031   8.358  19.829  1.00  0.00     0.151 C 
BRANCH  62  63
HETATM   63  C   UNL     1      25.236   9.534  20.755  1.00  0.00     0.249 C 
BRANCH  63  64
HETATM   64  N   UNL     1      25.062  10.812  20.045  1.00  0.00    -0.078 N 
ATOM     65  HN3 UNL     1      24.089  10.965  19.782  1.00  0.00     0.274 HD
ATOM     66  HN2 UNL     1      25.183  11.607  20.671  1.00  0.00     0.274 HD
ATOM     67  HN1 UNL     1      25.682  10.874  19.237  1.00  0.00     0.274 HD
ENDBRANCH  63  64
ENDBRANCH  62  63
ENDBRANCH  59  62
ENDBRANCH  55  56
ENDBRANCH  49  55
ENDBRANCH   2  46
BRANCH   6  68
HETATM   68  N   UNL     1      22.137  13.235  11.217  1.00  0.00    -0.383 N 
ATOM     69  HN2 UNL     1      21.440  13.980  11.227  1.00  0.00     0.157 HD
ATOM     70  HN1 UNL     1      22.871  13.286  10.510  1.00  0.00     0.157 HD
ENDBRANCH   6  68
TORSDOF 20
ENDMDL
MODEL 3
REMARK VINA RESULT:    -8.712      5.182     11.540
REMARK INTER + INTRA:         -19.806
REMARK INTER:                 -14.525
REMARK INTRA:                  -5.281
REMARK UNBOUND:                -2.690
REMARK  20 active torsions:
REMARK  status: ('A' for Active; 'I' for Inactive)
REMARK       I    between atoms: N_1  and  C_20 
REMARK    1  A    between atoms: N_1  and  C_9 
REMARK    2  A    between atoms: C_3  and  O_65 
REMARK    3  A    between atoms: C_4  and  C_7 
REMARK       I    between atoms: N_5  and  C_20 
REMARK    4  A    between atoms: N_5  and  C_17 
REMARK    5  A    between atoms: C_9  and  C_26 
REMARK    6  A    between atoms: O_10  and  C_34 
REMARK    7  A    between atoms: C_12  and  N_14 
REMARK    8  A    between atoms: C_13  and  O_18 
REMARK    9  A    between atoms: C_15  and  C_17 
REMARK   10  A    between atoms: N_21  and  C_29 
REMARK   11  A    between atoms: N_21  and  C_40 
REMARK   12  A    between atoms: N_21  and  C_30 
REMARK   13  A    between atoms: N_22  and  C_26 
REMARK   14  A    between atoms: C_28  and  C_29 
REMARK   15  A    between atoms: C_30  and  C_31 
REMARK   16  A    between atoms: C_32  and  N_55 
REMARK   17  A    between atoms: C_33  and  O_67 
REMARK   18  A    between atoms: C_39  and  N_62 
REMARK   19  A    between atoms: C_40  and  C_41 
REMARK   20  A    between atoms: C_45  and  N_52 
ROOT
HETATM    1  C   UNL     1      18.868  11.004  12.895  1.00  0.00     0.168 A 
HETATM    2  N   UNL     1      19.703  10.158  13.612  1.00  0.00    -0.279 N 
HETATM    3  C   UNL     1      20.853  11.710  12.564  1.00  0.00     0.123 A 
HETATM    4  C   UNL     1      20.979  10.616  13.402  1.00  0.00     0.143 A 
HETATM    5  C   UNL     1      23.172  10.792  13.447  1.00  0.00     0.183 A 
HETATM    6  C   UNL     1      22.042  12.344  12.162  1.00  0.00     0.131 A 
HETATM    7  N   UNL     1      19.522  11.960  12.263  1.00  0.00    -0.329 N 
ATOM      8  HN  UNL     1      19.138  12.710  11.688  1.00  0.00     0.168 HD
HETATM    9  N   UNL     1      22.116  10.106  13.886  1.00  0.00    -0.336 N 
ATOM     10  HN  UNL     1      22.170   9.300  14.508  1.00  0.00     0.168 HD
HETATM   11  N   UNL     1      23.202  11.857  12.645  1.00  0.00    -0.337 N 
ATOM     12  HN  UNL     1      24.089  12.296  12.401  1.00  0.00     0.168 HD
ENDROOT
BRANCH   1  13
HETATM   13  C   UNL     1      17.465  10.817  12.835  1.00  0.00    -0.028 C 
HETATM   14  C   UNL     1      16.311  10.623  12.608  1.00  0.00    -0.068 C 
BRANCH  14  15
HETATM   15  C   UNL     1      14.857  10.403  12.510  1.00  0.00     0.367 C 
BRANCH  15  16
HETATM   16  N   UNL     1      14.472   9.271  11.662  1.00  0.00     0.111 N 
BRANCH  16  17
HETATM   17  C   UNL     1      14.152   8.080  12.448  1.00  0.00     0.386 C 
BRANCH  17  18
HETATM   18  C   UNL     1      15.257   7.069  12.663  1.00  0.00     0.202 C 
HETATM   19  O   UNL     1      15.642   6.894  13.905  1.00  0.00    -0.647 OA
HETATM   20  O   UNL     1      15.760   6.467  11.731  1.00  0.00    -0.647 OA
ENDBRANCH  17  18
ENDBRANCH  16  17
BRANCH  16  21
HETATM   21  C   UNL     1      13.458   9.578  10.640  1.00  0.00     0.308 C 
BRANCH  21  22
HETATM   22  C   UNL     1      14.085   9.480   9.264  1.00  0.00     0.184 C 
HETATM   23  C   UNL     1      13.410   8.456   8.360  1.00  0.00     0.182 C 
HETATM   24  C   UNL     1      14.511   8.157   7.329  1.00  0.00     0.198 C 
HETATM   25  C   UNL     1      15.794   8.521   8.087  1.00  0.00     0.262 C 
HETATM   26  O   UNL     1      15.432   8.985   9.383  1.00  0.00    -0.354 OA
BRANCH  23  27
HETATM   27  O   UNL     1      12.292   9.032   7.714  1.00  0.00    -0.390 OA
ATOM     28  HO  UNL     1      11.512   8.898   8.240  1.00  0.00     0.210 HD
ENDBRANCH  23  27
BRANCH  24  29
HETATM   29  O   UNL     1      14.426   9.004   6.184  1.00  0.00    -0.388 OA
ATOM     30  HO  UNL     1      14.670   8.489   5.424  1.00  0.00     0.210 HD
ENDBRANCH  24  29
BRANCH  25  31
HETATM   31  N   UNL     1      16.751   7.449   8.209  1.00  0.00    -0.297 N 
HETATM   32  C   UNL     1      16.802   6.252   7.537  1.00  0.00     0.188 A 
HETATM   33  N   UNL     1      17.870   5.537   7.804  1.00  0.00    -0.346 N 
HETATM   34  C   UNL     1      18.567   6.316   8.720  1.00  0.00     0.122 A 
ATOM     35  HN  UNL     1      18.128   4.624   7.429  1.00  0.00     0.167 HD
HETATM   36  C   UNL     1      19.801   6.142   9.376  1.00  0.00     0.131 A 
HETATM   37  C   UNL     1      17.881   7.490   8.984  1.00  0.00     0.142 A 
HETATM   38  N   UNL     1      20.220   7.134  10.189  1.00  0.00    -0.337 N 
HETATM   39  C   UNL     1      19.442   8.203  10.361  1.00  0.00     0.183 A 
ATOM     40  HN  UNL     1      21.119   7.067  10.666  1.00  0.00     0.168 HD
HETATM   41  N   UNL     1      18.265   8.477   9.809  1.00  0.00    -0.336 N 
ATOM     42  HN  UNL     1      17.725   9.324   9.988  1.00  0.00     0.168 HD
BRANCH  36  43
HETATM   43  N   UNL     1      20.567   5.044   9.260  1.00  0.00    -0.383 N 
ATOM     44  HN2 UNL     1      21.510   5.043   8.872  1.00  0.00     0.157 HD
ATOM     45  HN1 UNL     1      20.180   4.150   9.560  1.00  0.00     0.157 HD
ENDBRANCH  36  43
ENDBRANCH  25  31
ENDBRANCH  21  22
ENDBRANCH  16  21
ENDBRANCH  15  16
ENDBRANCH  14  15
ENDBRANCH   1  13
BRANCH   2  46
HETATM   46  C   UNL     1      19.369   9.027  14.459  1.00  0.00     0.263 C 
HETATM   47  C   UNL     1      19.513   7.642  13.838  1.00  0.00     0.198 C 
HETATM   48  C   UNL     1      19.429   6.818  15.113  1.00  0.00     0.181 C 
HETATM   49  C   UNL     1      20.316   7.630  16.054  1.00  0.00     0.173 C 
HETATM   50  O   UNL     1      20.198   9.009  15.605  1.00  0.00    -0.354 OA
BRANCH  47  51
HETATM   51  O   UNL     1      18.476   7.333  12.919  1.00  0.00    -0.388 OA
ATOM     52  HO  UNL     1      17.713   6.949  13.334  1.00  0.00     0.210 HD
ENDBRANCH  47  51
BRANCH  48  53
HETATM   53  O   UNL     1      18.088   6.668  15.576  1.00  0.00    -0.390 OA
ATOM     54  HO  UNL     1      17.965   7.022  16.449  1.00  0.00     0.210 HD
ENDBRANCH  48  53
BRANCH  49  55
HETATM   55  C   UNL     1      21.771   7.210  15.970  1.00  0.00     0.159 C 
BRANCH  55  56
HETATM   56  N   UNL     1      22.057   6.166  15.010  1.00  0.00    -0.341 N 
HETATM   57  C   UNL     1      22.908   6.355  13.983  1.00  0.00     0.316 C 
HETATM   58  O   UNL     1      23.445   7.441  13.768  1.00  0.00    -0.247 OA
HETATM   59  N   UNL     1      23.089   5.272  13.188  1.00  0.00    -0.342 N 
ATOM     60  HN  UNL     1      22.487   4.460  13.323  1.00  0.00     0.164 HD
ATOM     61  HN  UNL     1      21.600   5.259  15.113  1.00  0.00     0.164 HD
BRANCH  59  62
HETATM   62  C   UNL     1      24.108   5.220  12.149  1.00  0.00     0.151 C 
BRANCH  62  63
HETATM   63  C   UNL     1      23.524   5.669  10.830  1.00  0.00     0.249 C 
BRANCH  63  64
HETATM   64  N   UNL     1      23.884   7.066  10.533  1.00  0.00    -0.078 N 
ATOM     65  HN3 UNL     1      24.739   7.343  11.014  1.00  0.00     0.274 HD
ATOM     66  HN2 UNL     1      24.202   7.173   9.570  1.00  0.00     0.274 HD
ATOM     67  HN1 UNL     1      23.114   7.701  10.745  1.00  0.00     0.274 HD
ENDBRANCH  63  64
ENDBRANCH  62  63
ENDBRANCH  59  62
ENDBRANCH  55  56
ENDBRANCH  49  55
ENDBRANCH   2  46
BRANCH   6  68
HETATM   68  N   UNL     1      22.089  13.357  11.289  1.00  0.00    -0.383 N 
ATOM     69  HN2 UNL     1      22.709  13.277  10.483  1.00  0.00     0.157 HD
ATOM     70  HN1 UNL     1      21.507  14.193  11.354  1.00  0.00     0.157 HD
ENDBRANCH   6  68
TORSDOF 20
ENDMDL
MODEL 4
REMARK VINA RESULT:    -8.444      5.929      9.029
REMARK INTER + INTRA:         -19.278
REMARK INTER:                 -15.597
REMARK INTRA:                  -3.681
REMARK UNBOUND:                -2.690
REMARK  20 active torsions:
REMARK  status: ('A' for Active; 'I' for Inactive)
REMARK       I    between atoms: N_1  and  C_20 
REMARK    1  A    between atoms: N_1  and  C_9 
REMARK    2  A    between atoms: C_3  and  O_65 
REMARK    3  A    between atoms: C_4  and  C_7 
REMARK       I    between atoms: N_5  and  C_20 
REMARK    4  A    between atoms: N_5  and  C_17 
REMARK    5  A    between atoms: C_9  and  C_26 
REMARK    6  A    between atoms: O_10  and  C_34 
REMARK    7  A    between atoms: C_12  and  N_14 
REMARK    8  A    between atoms: C_13  and  O_18 
REMARK    9  A    between atoms: C_15  and  C_17 
REMARK   10  A    between atoms: N_21  and  C_29 
REMARK   11  A    between atoms: N_21  and  C_40 
REMARK   12  A    between atoms: N_21  and  C_30 
REMARK   13  A    between atoms: N_22  and  C_26 
REMARK   14  A    between atoms: C_28  and  C_29 
REMARK   15  A    between atoms: C_30  and  C_31 
REMARK   16  A    between atoms: C_32  and  N_55 
REMARK   17  A    between atoms: C_33  and  O_67 
REMARK   18  A    between atoms: C_39  and  N_62 
REMARK   19  A    between atoms: C_40  and  C_41 
REMARK   20  A    between atoms: C_45  and  N_52 
ROOT
HETATM    1  C   UNL     1      15.455   5.518  10.059  1.00  0.00     0.168 A 
HETATM    2  N   UNL     1      15.162   5.845   8.742  1.00  0.00    -0.279 N 
HETATM    3  C   UNL     1      15.947   3.799   8.898  1.00  0.00     0.123 A 
HETATM    4  C   UNL     1      15.475   4.736   7.997  1.00  0.00     0.143 A 
HETATM    5  C   UNL     1      15.794   3.386   6.290  1.00  0.00     0.183 A 
HETATM    6  C   UNL     1      16.378   2.569   8.371  1.00  0.00     0.131 A 
HETATM    7  N   UNL     1      15.915   4.290  10.196  1.00  0.00    -0.329 N 
ATOM      8  HN  UNL     1      16.185   3.812  11.056  1.00  0.00     0.168 HD
HETATM    9  N   UNL     1      15.367   4.589   6.673  1.00  0.00    -0.336 N 
ATOM     10  HN  UNL     1      15.007   5.302   6.039  1.00  0.00     0.168 HD
HETATM   11  N   UNL     1      16.269   2.390   7.039  1.00  0.00    -0.337 N 
ATOM     12  HN  UNL     1      16.547   1.508   6.611  1.00  0.00     0.168 HD
ENDROOT
BRANCH   1  13
HETATM   13  C   UNL     1      15.301   6.440  11.124  1.00  0.00    -0.028 C 
HETATM   14  C   UNL     1      14.993   7.215  11.976  1.00  0.00    -0.068 C 
BRANCH  14  15
HETATM   15  C   UNL     1      14.791   8.163  13.087  1.00  0.00     0.367 C 
BRANCH  15  16
HETATM   16  N   UNL     1      15.875   9.136  13.254  1.00  0.00     0.111 N 
BRANCH  16  17
HETATM   17  C   UNL     1      15.651  10.349  12.467  1.00  0.00     0.386 C 
BRANCH  17  18
HETATM   18  C   UNL     1      16.353  10.451  11.131  1.00  0.00     0.202 C 
HETATM   19  O   UNL     1      15.578  10.616  10.085  1.00  0.00    -0.647 OA
HETATM   20  O   UNL     1      17.566  10.373  11.041  1.00  0.00    -0.647 OA
ENDBRANCH  17  18
ENDBRANCH  16  17
BRANCH  16  21
HETATM   21  C   UNL     1      16.247   9.416  14.651  1.00  0.00     0.308 C 
BRANCH  21  22
HETATM   22  C   UNL     1      17.609   8.819  14.938  1.00  0.00     0.184 C 
HETATM   23  C   UNL     1      18.286   9.410  16.169  1.00  0.00     0.182 C 
HETATM   24  C   UNL     1      19.766   9.087  15.912  1.00  0.00     0.198 C 
HETATM   25  C   UNL     1      19.825   8.944  14.386  1.00  0.00     0.262 C 
HETATM   26  O   UNL     1      18.515   9.149  13.867  1.00  0.00    -0.354 OA
BRANCH  23  27
HETATM   27  O   UNL     1      17.845   8.749  17.338  1.00  0.00    -0.390 OA
ATOM     28  HO  UNL     1      18.056   9.271  18.103  1.00  0.00     0.210 HD
ENDBRANCH  23  27
BRANCH  24  29
HETATM   29  O   UNL     1      20.155   7.838  16.483  1.00  0.00    -0.388 OA
ATOM     30  HO  UNL     1      20.544   8.015  17.331  1.00  0.00     0.210 HD
ENDBRANCH  24  29
BRANCH  25  31
HETATM   31  N   UNL     1      20.748   9.835  13.728  1.00  0.00    -0.297 N 
HETATM   32  C   UNL     1      22.064   9.627  13.394  1.00  0.00     0.188 A 
HETATM   33  N   UNL     1      22.598  10.604  12.699  1.00  0.00    -0.346 N 
HETATM   34  C   UNL     1      21.561  11.521  12.572  1.00  0.00     0.122 A 
ATOM     35  HN  UNL     1      23.550  10.675  12.338  1.00  0.00     0.167 HD
HETATM   36  C   UNL     1      21.463  12.765  11.918  1.00  0.00     0.131 A 
HETATM   37  C   UNL     1      20.422  11.062  13.212  1.00  0.00     0.142 A 
HETATM   38  N   UNL     1      20.270  13.394  11.952  1.00  0.00    -0.337 N 
HETATM   39  C   UNL     1      19.262  12.837  12.623  1.00  0.00     0.183 A 
ATOM     40  HN  UNL     1      20.141  14.284  11.470  1.00  0.00     0.168 HD
HETATM   41  N   UNL     1      19.233  11.683  13.281  1.00  0.00    -0.336 N 
ATOM     42  HN  UNL     1      18.418  11.317  13.774  1.00  0.00     0.168 HD
BRANCH  36  43
HETATM   43  N   UNL     1      22.486  13.367  11.290  1.00  0.00    -0.383 N 
ATOM     44  HN2 UNL     1      23.425  12.975  11.221  1.00  0.00     0.157 HD
ATOM     45  HN1 UNL     1      22.326  14.283  10.870  1.00  0.00     0.157 HD
ENDBRANCH  36  43
ENDBRANCH  25  31
ENDBRANCH  21  22
ENDBRANCH  16  21
ENDBRANCH  15  16
ENDBRANCH  14  15
ENDBRANCH   1  13
BRANCH   2  46
HETATM   46  C   UNL     1      14.604   7.068   8.194  1.00  0.00     0.263 C 
HETATM   47  C   UNL     1      15.503   7.870   7.258  1.00  0.00     0.198 C 
HETATM   48  C   UNL     1      14.447   8.793   6.674  1.00  0.00     0.181 C 
HETATM   49  C   UNL     1      13.299   7.818   6.425  1.00  0.00     0.173 C 
HETATM   50  O   UNL     1      13.441   6.784   7.440  1.00  0.00    -0.354 OA
BRANCH  47  51
HETATM   51  O   UNL     1      16.529   8.575   7.940  1.00  0.00    -0.388 OA
ATOM     52  HO  UNL     1      16.519   9.509   7.765  1.00  0.00     0.210 HD
ENDBRANCH  47  51
BRANCH  48  53
HETATM   53  O   UNL     1      14.110   9.862   7.557  1.00  0.00    -0.390 OA
ATOM     54  HO  UNL     1      13.280  10.267   7.336  1.00  0.00     0.210 HD
ENDBRANCH  48  53
BRANCH  49  55
HETATM   55  C   UNL     1      13.383   7.174   5.054  1.00  0.00     0.159 C 
BRANCH  55  56
HETATM   56  N   UNL     1      12.110   6.928   4.410  1.00  0.00    -0.341 N 
HETATM   57  C   UNL     1      12.021   6.634   3.099  1.00  0.00     0.316 C 
HETATM   58  O   UNL     1      13.006   6.613   2.362  1.00  0.00    -0.247 OA
HETATM   59  N   UNL     1      10.761   6.403   2.653  1.00  0.00    -0.342 N 
ATOM     60  HN  UNL     1       9.978   6.602   3.276  1.00  0.00     0.164 HD
ATOM     61  HN  UNL     1      11.256   6.980   4.965  1.00  0.00     0.164 HD
BRANCH  59  62
HETATM   62  C   UNL     1      10.480   5.885   1.322  1.00  0.00     0.151 C 
BRANCH  62  63
HETATM   63  C   UNL     1      10.233   7.029   0.365  1.00  0.00     0.249 C 
BRANCH  63  64
HETATM   64  N   UNL     1      11.389   7.244  -0.522  1.00  0.00    -0.078 N 
ATOM     65  HN3 UNL     1      12.071   7.876  -0.102  1.00  0.00     0.274 HD
ATOM     66  HN2 UNL     1      11.970   6.408  -0.588  1.00  0.00     0.274 HD
ATOM     67  HN1 UNL     1      11.095   7.570  -1.442  1.00  0.00     0.274 HD
ENDBRANCH  63  64
ENDBRANCH  62  63
ENDBRANCH  59  62
ENDBRANCH  55  56
ENDBRANCH  49  55
ENDBRANCH   2  46
BRANCH   6  68
HETATM   68  N   UNL     1      16.938   1.598   9.101  1.00  0.00    -0.383 N 
ATOM     69  HN2 UNL     1      17.810   1.183   8.773  1.00  0.00     0.157 HD
ATOM     70  HN1 UNL     1      16.569   1.273   9.995  1.00  0.00     0.157 HD
ENDBRANCH   6  68
TORSDOF 20
ENDMDL
MODEL 5
REMARK VINA RESULT:    -8.413      5.421     11.941
REMARK INTER + INTRA:         -19.218
REMARK INTER:                 -15.100
REMARK INTRA:                  -4.117
REMARK UNBOUND:                -2.690
REMARK  20 active torsions:
REMARK  status: ('A' for Active; 'I' for Inactive)
REMARK       I    between atoms: N_1  and  C_20 
REMARK    1  A    between atoms: N_1  and  C_9 
REMARK    2  A    between atoms: C_3  and  O_65 
REMARK    3  A    between atoms: C_4  and  C_7 
REMARK       I    between atoms: N_5  and  C_20 
REMARK    4  A    between atoms: N_5  and  C_17 
REMARK    5  A    between atoms: C_9  and  C_26 
REMARK    6  A    between atoms: O_10  and  C_34 
REMARK    7  A    between atoms: C_12  and  N_14 
REMARK    8  A    between atoms: C_13  and  O_18 
REMARK    9  A    between atoms: C_15  and  C_17 
REMARK   10  A    between atoms: N_21  and  C_29 
REMARK   11  A    between atoms: N_21  and  C_40 
REMARK   12  A    between atoms: N_21  and  C_30 
REMARK   13  A    between atoms: N_22  and  C_26 
REMARK   14  A    between atoms: C_28  and  C_29 
REMARK   15  A    between atoms: C_30  and  C_31 
REMARK   16  A    between atoms: C_32  and  N_55 
REMARK   17  A    between atoms: C_33  and  O_67 
REMARK   18  A    between atoms: C_39  and  N_62 
REMARK   19  A    between atoms: C_40  and  C_41 
REMARK   20  A    between atoms: C_45  and  N_52 
ROOT
HETATM    1  C   UNL     1      18.539  11.295  12.837  1.00  0.00     0.168 A 
HETATM    2  N   UNL     1      19.473  10.429  13.388  1.00  0.00    -0.279 N 
HETATM    3  C   UNL     1      20.451  12.122  12.384  1.00  0.00     0.123 A 
HETATM    4  C   UNL     1      20.703  10.966  13.101  1.00  0.00     0.143 A 
HETATM    5  C   UNL     1      22.881  11.244  12.951  1.00  0.00     0.183 A 
HETATM    6  C   UNL     1      21.567  12.847  11.930  1.00  0.00     0.131 A 
HETATM    7  N   UNL     1      19.087  12.333  12.237  1.00  0.00    -0.329 N 
ATOM      8  HN  UNL     1      18.618  13.112  11.773  1.00  0.00     0.168 HD
HETATM    9  N   UNL     1      21.902  10.471  13.424  1.00  0.00    -0.336 N 
ATOM     10  HN  UNL     1      22.050   9.617  13.960  1.00  0.00     0.168 HD
HETATM   11  N   UNL     1      22.788  12.376  12.252  1.00  0.00    -0.337 N 
ATOM     12  HN  UNL     1      23.628  12.877  11.967  1.00  0.00     0.168 HD
ENDROOT
BRANCH   1  13
HETATM   13  C   UNL     1      17.144  11.045  12.894  1.00  0.00    -0.028 C 
HETATM   14  C   UNL     1      16.007  10.763  13.107  1.00  0.00    -0.068 C 
BRANCH  14  15
HETATM   15  C   UNL     1      14.559  10.502  13.210  1.00  0.00     0.367 C 
BRANCH  15  16
HETATM   16  N   UNL     1      14.221   9.172  13.727  1.00  0.00     0.111 N 
BRANCH  16  17
HETATM   17  C   UNL     1      14.017   9.182  15.176  1.00  0.00     0.386 C 
BRANCH  17  18
HETATM   18  C   UNL     1      15.238   9.006  16.051  1.00  0.00     0.202 C 
HETATM   19  O   UNL     1      15.417   9.915  16.980  1.00  0.00    -0.647 OA
HETATM   20  O   UNL     1      16.010   8.077  15.888  1.00  0.00    -0.647 OA
ENDBRANCH  17  18
ENDBRANCH  16  17
BRANCH  16  21
HETATM   21  C   UNL     1      13.146   8.479  12.998  1.00  0.00     0.308 C 
BRANCH  21  22
HETATM   22  C   UNL     1      13.753   7.454  12.063  1.00  0.00     0.184 C 
HETATM   23  C   UNL     1      15.277   7.444  12.078  1.00  0.00     0.182 C 
HETATM   24  C   UNL     1      15.610   6.789  10.728  1.00  0.00     0.198 C 
HETATM   25  C   UNL     1      14.358   7.078   9.890  1.00  0.00     0.262 C 
HETATM   26  O   UNL     1      13.434   7.796  10.700  1.00  0.00    -0.354 OA
BRANCH  23  27
HETATM   27  O   UNL     1      15.752   6.635  13.135  1.00  0.00    -0.390 OA
ATOM     28  HO  UNL     1      16.396   7.114  13.643  1.00  0.00     0.210 HD
ENDBRANCH  23  27
BRANCH  24  29
HETATM   29  O   UNL     1      15.749   5.373  10.832  1.00  0.00    -0.388 OA
ATOM     30  HO  UNL     1      15.746   5.015   9.952  1.00  0.00     0.210 HD
ENDBRANCH  24  29
BRANCH  25  31
HETATM   31  N   UNL     1      14.599   7.809   8.671  1.00  0.00    -0.297 N 
HETATM   32  C   UNL     1      15.781   8.307   8.177  1.00  0.00     0.188 A 
HETATM   33  N   UNL     1      15.677   8.833   6.979  1.00  0.00    -0.346 N 
HETATM   34  C   UNL     1      14.333   8.675   6.666  1.00  0.00     0.122 A 
ATOM     35  HN  UNL     1      16.411   9.259   6.412  1.00  0.00     0.167 HD
HETATM   36  C   UNL     1      13.576   8.996   5.521  1.00  0.00     0.131 A 
HETATM   37  C   UNL     1      13.658   8.056   7.705  1.00  0.00     0.142 A 
HETATM   38  N   UNL     1      12.269   8.660   5.524  1.00  0.00    -0.337 N 
HETATM   39  C   UNL     1      11.751   8.080   6.607  1.00  0.00     0.183 A 
ATOM     40  HN  UNL     1      11.686   8.847   4.708  1.00  0.00     0.168 HD
HETATM   41  N   UNL     1      12.354   7.737   7.740  1.00  0.00    -0.336 N 
ATOM     42  HN  UNL     1      11.889   7.292   8.531  1.00  0.00     0.168 HD
BRANCH  36  43
HETATM   43  N   UNL     1      14.070   9.634   4.448  1.00  0.00    -0.383 N 
ATOM     44  HN2 UNL     1      13.925  10.625   4.255  1.00  0.00     0.157 HD
ATOM     45  HN1 UNL     1      14.609   9.097   3.769  1.00  0.00     0.157 HD
ENDBRANCH  36  43
ENDBRANCH  25  31
ENDBRANCH  21  22
ENDBRANCH  16  21
ENDBRANCH  15  16
ENDBRANCH  14  15
ENDBRANCH   1  13
BRANCH   2  46
HETATM   46  C   UNL     1      19.271   9.214  14.155  1.00  0.00     0.263 C 
HETATM   47  C   UNL     1      19.611   7.901  13.457  1.00  0.00     0.198 C 
HETATM   48  C   UNL     1      19.605   6.994  14.676  1.00  0.00     0.181 C 
HETATM   49  C   UNL     1      20.356   7.852  15.693  1.00  0.00     0.173 C 
HETATM   50  O   UNL     1      20.067   9.230  15.324  1.00  0.00    -0.354 OA
BRANCH  47  51
HETATM   51  O   UNL     1      18.646   7.519  12.488  1.00  0.00    -0.388 OA
ATOM     52  HO  UNL     1      18.902   7.740  11.600  1.00  0.00     0.210 HD
ENDBRANCH  47  51
BRANCH  48  53
HETATM   53  O   UNL     1      18.285   6.642  15.086  1.00  0.00    -0.390 OA
ATOM     54  HO  UNL     1      18.218   5.731  15.348  1.00  0.00     0.210 HD
ENDBRANCH  48  53
BRANCH  49  55
HETATM   55  C   UNL     1      21.855   7.630  15.631  1.00  0.00     0.159 C 
BRANCH  55  56
HETATM   56  N   UNL     1      22.279   6.505  14.826  1.00  0.00    -0.341 N 
HETATM   57  C   UNL     1      22.973   6.668  13.683  1.00  0.00     0.316 C 
HETATM   58  O   UNL     1      23.236   7.781  13.227  1.00  0.00    -0.247 OA
HETATM   59  N   UNL     1      23.319   5.515  13.059  1.00  0.00    -0.342 N 
ATOM     60  HN  UNL     1      22.925   4.638  13.400  1.00  0.00     0.164 HD
ATOM     61  HN  UNL     1      22.045   5.561  15.132  1.00  0.00     0.164 HD
BRANCH  59  62
HETATM   62  C   UNL     1      24.229   5.477  11.923  1.00  0.00     0.151 C 
BRANCH  62  63
HETATM   63  C   UNL     1      23.447   5.550  10.632  1.00  0.00     0.249 C 
BRANCH  63  64
HETATM   64  N   UNL     1      23.904   6.668   9.791  1.00  0.00    -0.078 N 
ATOM     65  HN3 UNL     1      24.881   6.559   9.522  1.00  0.00     0.274 HD
ATOM     66  HN2 UNL     1      23.481   6.635   8.863  1.00  0.00     0.274 HD
ATOM     67  HN1 UNL     1      23.739   7.566  10.246  1.00  0.00     0.274 HD
ENDBRANCH  63  64
ENDBRANCH  62  63
ENDBRANCH  59  62
ENDBRANCH  55  56
ENDBRANCH  49  55
ENDBRANCH   2  46
BRANCH   6  68
HETATM   68  N   UNL     1      21.487  13.934  11.155  1.00  0.00    -0.383 N 
ATOM     69  HN2 UNL     1      21.886  14.808  11.498  1.00  0.00     0.157 HD
ATOM     70  HN1 UNL     1      21.087  13.936  10.216  1.00  0.00     0.157 HD
ENDBRANCH   6  68
TORSDOF 20
ENDMDL
MODEL 6
REMARK VINA RESULT:    -8.387      3.897     12.391
REMARK INTER + INTRA:         -19.167
REMARK INTER:                 -15.491
REMARK INTRA:                  -3.676
REMARK UNBOUND:                -2.690
REMARK  20 active torsions:
REMARK  status: ('A' for Active; 'I' for Inactive)
REMARK       I    between atoms: N_1  and  C_20 
REMARK    1  A    between atoms: N_1  and  C_9 
REMARK    2  A    between atoms: C_3  and  O_65 
REMARK    3  A    between atoms: C_4  and  C_7 
REMARK       I    between atoms: N_5  and  C_20 
REMARK    4  A    between atoms: N_5  and  C_17 
REMARK    5  A    between atoms: C_9  and  C_26 
REMARK    6  A    between atoms: O_10  and  C_34 
REMARK    7  A    between atoms: C_12  and  N_14 
REMARK    8  A    between atoms: C_13  and  O_18 
REMARK    9  A    between atoms: C_15  and  C_17 
REMARK   10  A    between atoms: N_21  and  C_29 
REMARK   11  A    between atoms: N_21  and  C_40 
REMARK   12  A    between atoms: N_21  and  C_30 
REMARK   13  A    between atoms: N_22  and  C_26 
REMARK   14  A    between atoms: C_28  and  C_29 
REMARK   15  A    between atoms: C_30  and  C_31 
REMARK   16  A    between atoms: C_32  and  N_55 
REMARK   17  A    between atoms: C_33  and  O_67 
REMARK   18  A    between atoms: C_39  and  N_62 
REMARK   19  A    between atoms: C_40  and  C_41 
REMARK   20  A    between atoms: C_45  and  N_52 
ROOT
HETATM    1  C   UNL     1      18.537  11.301  12.893  1.00  0.00     0.168 A 
HETATM    2  N   UNL     1      19.484  10.427  13.410  1.00  0.00    -0.279 N 
HETATM    3  C   UNL     1      20.439  12.132  12.407  1.00  0.00     0.123 A 
HETATM    4  C   UNL     1      20.707  10.965  13.101  1.00  0.00     0.143 A 
HETATM    5  C   UNL     1      22.881  11.243  12.903  1.00  0.00     0.183 A 
HETATM    6  C   UNL     1      21.546  12.861  11.936  1.00  0.00     0.131 A 
HETATM    7  N   UNL     1      19.073  12.347  12.295  1.00  0.00    -0.329 N 
ATOM      8  HN  UNL     1      18.594  13.132  11.853  1.00  0.00     0.168 HD
HETATM    9  N   UNL     1      21.913  10.465  13.389  1.00  0.00    -0.336 N 
ATOM     10  HN  UNL     1      22.071   9.603  13.910  1.00  0.00     0.168 HD
HETATM   11  N   UNL     1      22.773  12.384  12.223  1.00  0.00    -0.337 N 
ATOM     12  HN  UNL     1      23.607  12.889  11.924  1.00  0.00     0.168 HD
ENDROOT
BRANCH   1  13
HETATM   13  C   UNL     1      17.144  11.052  12.981  1.00  0.00    -0.028 C 
HETATM   14  C   UNL     1      16.014  10.675  12.997  1.00  0.00    -0.068 C 
BRANCH  14  15
HETATM   15  C   UNL     1      14.574  10.374  13.091  1.00  0.00     0.367 C 
BRANCH  15  16
HETATM   16  N   UNL     1      14.267   9.081  13.711  1.00  0.00     0.111 N 
BRANCH  16  17
HETATM   17  C   UNL     1      14.086   9.195  15.159  1.00  0.00     0.386 C 
BRANCH  17  18
HETATM   18  C   UNL     1      15.327   9.134  16.022  1.00  0.00     0.202 C 
HETATM   19  O   UNL     1      16.173   8.169  15.746  1.00  0.00    -0.647 OA
HETATM   20  O   UNL     1      15.515   9.930  16.925  1.00  0.00    -0.647 OA
ENDBRANCH  17  18
ENDBRANCH  16  17
BRANCH  16  21
HETATM   21  C   UNL     1      13.192   8.319  13.054  1.00  0.00     0.308 C 
BRANCH  21  22
HETATM   22  C   UNL     1      13.801   7.316  12.096  1.00  0.00     0.184 C 
HETATM   23  C   UNL     1      15.325   7.314  12.105  1.00  0.00     0.182 C 
HETATM   24  C   UNL     1      15.657   6.689  10.740  1.00  0.00     0.198 C 
HETATM   25  C   UNL     1      14.400   6.988   9.914  1.00  0.00     0.262 C 
HETATM   26  O   UNL     1      13.475   7.685  10.742  1.00  0.00    -0.354 OA
BRANCH  23  27
HETATM   27  O   UNL     1      15.809   6.486  13.143  1.00  0.00    -0.390 OA
ATOM     28  HO  UNL     1      15.368   5.644  13.116  1.00  0.00     0.210 HD
ENDBRANCH  23  27
BRANCH  24  29
HETATM   29  O   UNL     1      15.803   5.272  10.815  1.00  0.00    -0.388 OA
ATOM     30  HO  UNL     1      14.965   4.907  11.073  1.00  0.00     0.210 HD
ENDBRANCH  24  29
BRANCH  25  31
HETATM   31  N   UNL     1      14.632   7.746   8.708  1.00  0.00    -0.297 N 
HETATM   32  C   UNL     1      15.809   8.262   8.222  1.00  0.00     0.188 A 
HETATM   33  N   UNL     1      15.699   8.812   7.035  1.00  0.00    -0.346 N 
HETATM   34  C   UNL     1      14.355   8.650   6.722  1.00  0.00     0.122 A 
ATOM     35  HN  UNL     1      16.428   9.254   6.475  1.00  0.00     0.167 HD
HETATM   36  C   UNL     1      13.593   8.989   5.587  1.00  0.00     0.131 A 
HETATM   37  C   UNL     1      13.687   8.006   7.750  1.00  0.00     0.142 A 
HETATM   38  N   UNL     1      12.288   8.644   5.586  1.00  0.00    -0.337 N 
HETATM   39  C   UNL     1      11.777   8.039   6.658  1.00  0.00     0.183 A 
ATOM     40  HN  UNL     1      11.701   8.844   4.776  1.00  0.00     0.168 HD
HETATM   41  N   UNL     1      12.386   7.677   7.783  1.00  0.00    -0.336 N 
ATOM     42  HN  UNL     1      11.926   7.213   8.566  1.00  0.00     0.168 HD
BRANCH  36  43
HETATM   43  N   UNL     1      14.079   9.653   4.525  1.00  0.00    -0.383 N 
ATOM     44  HN2 UNL     1      13.576  10.390   4.032  1.00  0.00     0.157 HD
ATOM     45  HN1 UNL     1      15.001   9.395   4.172  1.00  0.00     0.157 HD
ENDBRANCH  36  43
ENDBRANCH  25  31
ENDBRANCH  21  22
ENDBRANCH  16  21
ENDBRANCH  15  16
ENDBRANCH  14  15
ENDBRANCH   1  13
BRANCH   2  46
HETATM   46  C   UNL     1      19.297   9.201  14.165  1.00  0.00     0.263 C 
HETATM   47  C   UNL     1      19.650   7.899  13.452  1.00  0.00     0.198 C 
HETATM   48  C   UNL     1      19.659   6.980  14.662  1.00  0.00     0.181 C 
HETATM   49  C   UNL     1      20.403   7.836  15.685  1.00  0.00     0.173 C 
HETATM   50  O   UNL     1      20.098   9.214  15.332  1.00  0.00    -0.354 OA
BRANCH  47  51
HETATM   51  O   UNL     1      18.686   7.517  12.483  1.00  0.00    -0.388 OA
ATOM     52  HO  UNL     1      17.816   7.407  12.846  1.00  0.00     0.210 HD
ENDBRANCH  47  51
BRANCH  48  53
HETATM   53  O   UNL     1      18.344   6.608  15.073  1.00  0.00    -0.390 OA
ATOM     54  HO  UNL     1      17.989   5.898  14.553  1.00  0.00     0.210 HD
ENDBRANCH  48  53
BRANCH  49  55
HETATM   55  C   UNL     1      21.904   7.632  15.616  1.00  0.00     0.159 C 
BRANCH  55  56
HETATM   56  N   UNL     1      22.553   7.395  16.888  1.00  0.00    -0.341 N 
HETATM   57  C   UNL     1      23.388   8.296  17.440  1.00  0.00     0.316 C 
HETATM   58  O   UNL     1      23.694   9.343  16.872  1.00  0.00    -0.247 OA
HETATM   59  N   UNL     1      23.893   7.937  18.646  1.00  0.00    -0.342 N 
ATOM     60  HN  UNL     1      23.732   6.987  18.980  1.00  0.00     0.164 HD
ATOM     61  HN  UNL     1      22.372   6.520  17.380  1.00  0.00     0.164 HD
BRANCH  59  62
HETATM   62  C   UNL     1      24.655   8.852  19.484  1.00  0.00     0.151 C 
BRANCH  62  63
HETATM   63  C   UNL     1      25.185   8.121  20.697  1.00  0.00     0.249 C 
BRANCH  63  64
HETATM   64  N   UNL     1      26.631   7.872  20.582  1.00  0.00    -0.078 N 
ATOM     65  HN3 UNL     1      26.906   7.699  19.615  1.00  0.00     0.274 HD
ATOM     66  HN2 UNL     1      27.171   8.720  20.750  1.00  0.00     0.274 HD
ATOM     67  HN1 UNL     1      26.926   7.113  21.196  1.00  0.00     0.274 HD
ENDBRANCH  63  64
ENDBRANCH  62  63
ENDBRANCH  59  62
ENDBRANCH  55  56
ENDBRANCH  49  55
ENDBRANCH   2  46
BRANCH   6  68
HETATM   68  N   UNL     1      21.448  13.960  11.178  1.00  0.00    -0.383 N 
ATOM     69  HN2 UNL     1      20.904  14.747  11.529  1.00  0.00     0.157 HD
ATOM     70  HN1 UNL     1      21.923  14.077  10.282  1.00  0.00     0.157 HD
ENDBRANCH   6  68
TORSDOF 20
ENDMDL
MODEL 7
REMARK VINA RESULT:    -8.387      5.553     11.647
REMARK INTER + INTRA:         -19.166
REMARK INTER:                 -15.285
REMARK INTRA:                  -3.881
REMARK UNBOUND:                -2.690
REMARK  20 active torsions:
REMARK  status: ('A' for Active; 'I' for Inactive)
REMARK       I    between atoms: N_1  and  C_20 
REMARK    1  A    between atoms: N_1  and  C_9 
REMARK    2  A    between atoms: C_3  and  O_65 
REMARK    3  A    between atoms: C_4  and  C_7 
REMARK       I    between atoms: N_5  and  C_20 
REMARK    4  A    between atoms: N_5  and  C_17 
REMARK    5  A    between atoms: C_9  and  C_26 
REMARK    6  A    between atoms: O_10  and  C_34 
REMARK    7  A    between atoms: C_12  and  N_14 
REMARK    8  A    between atoms: C_13  and  O_18 
REMARK    9  A    between atoms: C_15  and  C_17 
REMARK   10  A    between atoms: N_21  and  C_29 
REMARK   11  A    between atoms: N_21  and  C_40 
REMARK   12  A    between atoms: N_21  and  C_30 
REMARK   13  A    between atoms: N_22  and  C_26 
REMARK   14  A    between atoms: C_28  and  C_29 
REMARK   15  A    between atoms: C_30  and  C_31 
REMARK   16  A    between atoms: C_32  and  N_55 
REMARK   17  A    between atoms: C_33  and  O_67 
REMARK   18  A    between atoms: C_39  and  N_62 
REMARK   19  A    between atoms: C_40  and  C_41 
REMARK   20  A    between atoms: C_45  and  N_52 
ROOT
HETATM    1  C   UNL     1      18.853  10.973  12.853  1.00  0.00     0.168 A 
HETATM    2  N   UNL     1      19.686  10.142  13.588  1.00  0.00    -0.279 N 
HETATM    3  C   UNL     1      20.835  11.695  12.541  1.00  0.00     0.123 A 
HETATM    4  C   UNL     1      20.961  10.610  13.390  1.00  0.00     0.143 A 
HETATM    5  C   UNL     1      23.151  10.808  13.461  1.00  0.00     0.183 A 
HETATM    6  C   UNL     1      22.023  12.336  12.147  1.00  0.00     0.131 A 
HETATM    7  N   UNL     1      19.505  11.929  12.221  1.00  0.00    -0.329 N 
ATOM      8  HN  UNL     1      19.122  12.670  11.633  1.00  0.00     0.168 HD
HETATM    9  N   UNL     1      22.096  10.116  13.894  1.00  0.00    -0.336 N 
ATOM     10  HN  UNL     1      22.150   9.316  14.524  1.00  0.00     0.168 HD
HETATM   11  N   UNL     1      23.181  11.865  12.650  1.00  0.00    -0.337 N 
ATOM     12  HN  UNL     1      24.067  12.311  12.413  1.00  0.00     0.168 HD
ENDROOT
BRANCH   1  13
HETATM   13  C   UNL     1      17.452  10.772  12.777  1.00  0.00    -0.028 C 
HETATM   14  C   UNL     1      16.289  10.666  12.543  1.00  0.00    -0.068 C 
BRANCH  14  15
HETATM   15  C   UNL     1      14.835  10.455  12.421  1.00  0.00     0.367 C 
BRANCH  15  16
HETATM   16  N   UNL     1      14.457   9.372  11.507  1.00  0.00     0.111 N 
BRANCH  16  17
HETATM   17  C   UNL     1      14.095   8.149  12.225  1.00  0.00     0.386 C 
BRANCH  17  18
HETATM   18  C   UNL     1      14.894   6.901  11.921  1.00  0.00     0.202 C 
HETATM   19  O   UNL     1      16.188   7.065  11.784  1.00  0.00    -0.647 OA
HETATM   20  O   UNL     1      14.356   5.814  11.800  1.00  0.00    -0.647 OA
ENDBRANCH  17  18
ENDBRANCH  16  17
BRANCH  16  21
HETATM   21  C   UNL     1      13.477   9.746  10.474  1.00  0.00     0.308 C 
BRANCH  21  22
HETATM   22  C   UNL     1      14.103   9.582   9.105  1.00  0.00     0.184 C 
HETATM   23  C   UNL     1      13.432   8.512   8.253  1.00  0.00     0.182 C 
HETATM   24  C   UNL     1      14.534   8.167   7.238  1.00  0.00     0.198 C 
HETATM   25  C   UNL     1      15.816   8.573   7.975  1.00  0.00     0.262 C 
HETATM   26  O   UNL     1      15.453   9.099   9.247  1.00  0.00    -0.354 OA
BRANCH  23  27
HETATM   27  O   UNL     1      12.311   9.050   7.581  1.00  0.00    -0.390 OA
ATOM     28  HO  UNL     1      12.420   8.952   6.642  1.00  0.00     0.210 HD
ENDBRANCH  23  27
BRANCH  24  29
HETATM   29  O   UNL     1      14.444   8.955   6.052  1.00  0.00    -0.388 OA
ATOM     30  HO  UNL     1      13.544   9.247   5.964  1.00  0.00     0.210 HD
ENDBRANCH  24  29
BRANCH  25  31
HETATM   31  N   UNL     1      16.777   7.512   8.149  1.00  0.00    -0.297 N 
HETATM   32  C   UNL     1      16.890   6.324   7.469  1.00  0.00     0.188 A 
HETATM   33  N   UNL     1      17.948   5.620   7.799  1.00  0.00    -0.346 N 
HETATM   34  C   UNL     1      18.570   6.397   8.768  1.00  0.00     0.122 A 
ATOM     35  HN  UNL     1      18.243   4.715   7.432  1.00  0.00     0.167 HD
HETATM   36  C   UNL     1      19.760   6.232   9.504  1.00  0.00     0.131 A 
HETATM   37  C   UNL     1      17.852   7.559   9.000  1.00  0.00     0.142 A 
HETATM   38  N   UNL     1      20.110   7.219  10.355  1.00  0.00    -0.337 N 
HETATM   39  C   UNL     1      19.307   8.276  10.486  1.00  0.00     0.183 A 
ATOM     40  HN  UNL     1      20.976   7.158  10.890  1.00  0.00     0.168 HD
HETATM   41  N   UNL     1      18.166   8.541   9.859  1.00  0.00    -0.336 N 
ATOM     42  HN  UNL     1      17.603   9.378  10.011  1.00  0.00     0.168 HD
BRANCH  36  43
HETATM   43  N   UNL     1      20.547   5.146   9.428  1.00  0.00    -0.383 N 
ATOM     44  HN2 UNL     1      20.199   4.197   9.291  1.00  0.00     0.157 HD
ATOM     45  HN1 UNL     1      21.554   5.268   9.533  1.00  0.00     0.157 HD
ENDBRANCH  36  43
ENDBRANCH  25  31
ENDBRANCH  21  22
ENDBRANCH  16  21
ENDBRANCH  15  16
ENDBRANCH  14  15
ENDBRANCH   1  13
BRANCH   2  46
HETATM   46  C   UNL     1      19.352   9.016  14.442  1.00  0.00     0.263 C 
HETATM   47  C   UNL     1      19.091   9.327  15.912  1.00  0.00     0.198 C 
HETATM   48  C   UNL     1      18.455   8.006  16.309  1.00  0.00     0.181 C 
HETATM   49  C   UNL     1      17.527   7.751  15.123  1.00  0.00     0.173 C 
HETATM   50  O   UNL     1      18.175   8.381  13.982  1.00  0.00    -0.354 OA
BRANCH  47  51
HETATM   51  O   UNL     1      20.278   9.603  16.642  1.00  0.00    -0.388 OA
ATOM     52  HO  UNL     1      20.114  10.048  17.465  1.00  0.00     0.210 HD
ENDBRANCH  47  51
BRANCH  48  53
HETATM   53  O   UNL     1      19.421   6.976  16.513  1.00  0.00    -0.390 OA
ATOM     54  HO  UNL     1      20.281   7.217  16.189  1.00  0.00     0.210 HD
ENDBRANCH  48  53
BRANCH  49  55
HETATM   55  C   UNL     1      16.161   8.380  15.321  1.00  0.00     0.159 C 
BRANCH  55  56
HETATM   56  N   UNL     1      15.464   7.972  16.522  1.00  0.00    -0.341 N 
HETATM   57  C   UNL     1      15.162   8.846  17.502  1.00  0.00     0.316 C 
HETATM   58  O   UNL     1      15.511  10.025  17.461  1.00  0.00    -0.247 OA
HETATM   59  N   UNL     1      14.484   8.314  18.549  1.00  0.00    -0.342 N 
ATOM     60  HN  UNL     1      14.376   7.301  18.596  1.00  0.00     0.164 HD
ATOM     61  HN  UNL     1      15.194   6.995  16.630  1.00  0.00     0.164 HD
BRANCH  59  62
HETATM   62  C   UNL     1      13.904   9.129  19.607  1.00  0.00     0.151 C 
BRANCH  62  63
HETATM   63  C   UNL     1      14.273   8.560  20.957  1.00  0.00     0.249 C 
BRANCH  63  64
HETATM   64  N   UNL     1      14.231   9.595  22.004  1.00  0.00    -0.078 N 
ATOM     65  HN3 UNL     1      13.414   9.487  22.605  1.00  0.00     0.274 HD
ATOM     66  HN2 UNL     1      14.961   9.451  22.702  1.00  0.00     0.274 HD
ATOM     67  HN1 UNL     1      14.278  10.531  21.602  1.00  0.00     0.274 HD
ENDBRANCH  63  64
ENDBRANCH  62  63
ENDBRANCH  59  62
ENDBRANCH  55  56
ENDBRANCH  49  55
ENDBRANCH   2  46
BRANCH   6  68
HETATM   68  N   UNL     1      22.071  13.342  11.265  1.00  0.00    -0.383 N 
ATOM     69  HN2 UNL     1      21.194  13.717  10.906  1.00  0.00     0.157 HD
ATOM     70  HN1 UNL     1      22.936  13.789  10.959  1.00  0.00     0.157 HD
ENDBRANCH   6  68
TORSDOF 20
ENDMDL
MODEL 8
REMARK VINA RESULT:    -8.371      3.411     13.559
REMARK INTER + INTRA:         -19.134
REMARK INTER:                 -16.438
REMARK INTRA:                  -2.696
REMARK UNBOUND:                -2.690
REMARK  20 active torsions:
REMARK  status: ('A' for Active; 'I' for Inactive)
REMARK       I    between atoms: N_1  and  C_20 
REMARK    1  A    between atoms: N_1  and  C_9 
REMARK    2  A    between atoms: C_3  and  O_65 
REMARK    3  A    between atoms: C_4  and  C_7 
REMARK       I    between atoms: N_5  and  C_20 
REMARK    4  A    between atoms: N_5  and  C_17 
REMARK    5  A    between atoms: C_9  and  C_26 
REMARK    6  A    between atoms: O_10  and  C_34 
REMARK    7  A    between atoms: C_12  and  N_14 
REMARK    8  A    between atoms: C_13  and  O_18 
REMARK    9  A    between atoms: C_15  and  C_17 
REMARK   10  A    between atoms: N_21  and  C_29 
REMARK   11  A    between atoms: N_21  and  C_40 
REMARK   12  A    between atoms: N_21  and  C_30 
REMARK   13  A    between atoms: N_22  and  C_26 
REMARK   14  A    between atoms: C_28  and  C_29 
REMARK   15  A    between atoms: C_30  and  C_31 
REMARK   16  A    between atoms: C_32  and  N_55 
REMARK   17  A    between atoms: C_33  and  O_67 
REMARK   18  A    between atoms: C_39  and  N_62 
REMARK   19  A    between atoms: C_40  and  C_41 
REMARK   20  A    between atoms: C_45  and  N_52 
ROOT
HETATM    1  C   UNL     1      18.839  11.124  12.988  1.00  0.00     0.168 A 
HETATM    2  N   UNL     1      19.671  10.271  13.700  1.00  0.00    -0.279 N 
HETATM    3  C   UNL     1      20.831  11.773  12.593  1.00  0.00     0.123 A 
HETATM    4  C   UNL     1      20.952  10.693  13.449  1.00  0.00     0.143 A 
HETATM    5  C   UNL     1      23.148  10.816  13.435  1.00  0.00     0.183 A 
HETATM    6  C   UNL     1      22.024  12.370  12.148  1.00  0.00     0.131 A 
HETATM    7  N   UNL     1      19.498  12.051  12.321  1.00  0.00    -0.329 N 
ATOM      8  HN  UNL     1      19.118  12.799  11.740  1.00  0.00     0.168 HD
HETATM    9  N   UNL     1      22.088  10.165  13.914  1.00  0.00    -0.336 N 
ATOM     10  HN  UNL     1      22.138   9.370  14.551  1.00  0.00     0.168 HD
HETATM   11  N   UNL     1      23.183  11.864  12.611  1.00  0.00    -0.337 N 
ATOM     12  HN  UNL     1      24.074  12.276  12.336  1.00  0.00     0.168 HD
ENDROOT
BRANCH   1  13
HETATM   13  C   UNL     1      17.430  10.970  12.967  1.00  0.00    -0.028 C 
HETATM   14  C   UNL     1      16.276  10.708  12.827  1.00  0.00    -0.068 C 
BRANCH  14  15
HETATM   15  C   UNL     1      14.816  10.508  12.792  1.00  0.00     0.367 C 
BRANCH  15  16
HETATM   16  N   UNL     1      14.379   9.398  11.938  1.00  0.00     0.111 N 
BRANCH  16  17
HETATM   17  C   UNL     1      13.320   8.608  12.564  1.00  0.00     0.386 C 
BRANCH  17  18
HETATM   18  C   UNL     1      12.338   9.338  13.454  1.00  0.00     0.202 C 
HETATM   19  O   UNL     1      12.385   9.038  14.730  1.00  0.00    -0.647 OA
HETATM   20  O   UNL     1      11.548  10.147  13.001  1.00  0.00    -0.647 OA
ENDBRANCH  17  18
ENDBRANCH  16  17
BRANCH  16  21
HETATM   21  C   UNL     1      14.076   9.770  10.546  1.00  0.00     0.308 C 
BRANCH  21  22
HETATM   22  C   UNL     1      14.990   9.005   9.611  1.00  0.00     0.184 C 
HETATM   23  C   UNL     1      15.934   9.900   8.817  1.00  0.00     0.182 C 
HETATM   24  C   UNL     1      16.301   9.006   7.622  1.00  0.00     0.198 C 
HETATM   25  C   UNL     1      15.113   8.040   7.542  1.00  0.00     0.262 C 
HETATM   26  O   UNL     1      14.204   8.360   8.590  1.00  0.00    -0.354 OA
BRANCH  23  27
HETATM   27  O   UNL     1      17.092  10.187   9.576  1.00  0.00    -0.390 OA
ATOM     28  HO  UNL     1      17.832   9.700   9.232  1.00  0.00     0.210 HD
ENDBRANCH  23  27
BRANCH  24  29
HETATM   29  O   UNL     1      17.476   8.233   7.864  1.00  0.00    -0.388 OA
ATOM     30  HO  UNL     1      18.088   8.778   8.345  1.00  0.00     0.210 HD
ENDBRANCH  24  29
BRANCH  25  31
HETATM   31  N   UNL     1      14.413   8.042   6.281  1.00  0.00    -0.297 N 
HETATM   32  C   UNL     1      14.470   8.959   5.260  1.00  0.00     0.188 A 
HETATM   33  N   UNL     1      13.787   8.612   4.194  1.00  0.00    -0.346 N 
HETATM   34  C   UNL     1      13.239   7.383   4.541  1.00  0.00     0.122 A 
ATOM     35  HN  UNL     1      13.683   9.123   3.317  1.00  0.00     0.167 HD
HETATM   36  C   UNL     1      12.432   6.466   3.839  1.00  0.00     0.131 A 
HETATM   37  C   UNL     1      13.609   7.029   5.828  1.00  0.00     0.142 A 
HETATM   38  N   UNL     1      12.102   5.318   4.466  1.00  0.00    -0.337 N 
HETATM   39  C   UNL     1      12.519   5.120   5.718  1.00  0.00     0.183 A 
ATOM     40  HN  UNL     1      11.542   4.610   3.990  1.00  0.00     0.168 HD
HETATM   41  N   UNL     1      13.271   5.906   6.481  1.00  0.00    -0.336 N 
ATOM     42  HN  UNL     1      13.553   5.685   7.436  1.00  0.00     0.168 HD
BRANCH  36  43
HETATM   43  N   UNL     1      11.954   6.678   2.601  1.00  0.00    -0.383 N 
ATOM     44  HN2 UNL     1      11.421   7.504   2.329  1.00  0.00     0.157 HD
ATOM     45  HN1 UNL     1      12.114   5.964   1.891  1.00  0.00     0.157 HD
ENDBRANCH  36  43
ENDBRANCH  25  31
ENDBRANCH  21  22
ENDBRANCH  16  21
ENDBRANCH  15  16
ENDBRANCH  14  15
ENDBRANCH   1  13
BRANCH   2  46
HETATM   46  C   UNL     1      19.331   9.166  14.578  1.00  0.00     0.263 C 
HETATM   47  C   UNL     1      19.588   7.762  14.040  1.00  0.00     0.198 C 
HETATM   48  C   UNL     1      19.451   6.996  15.346  1.00  0.00     0.181 C 
HETATM   49  C   UNL     1      20.226   7.897  16.305  1.00  0.00     0.173 C 
HETATM   50  O   UNL     1      20.074   9.246  15.780  1.00  0.00    -0.354 OA
BRANCH  47  51
HETATM   51  O   UNL     1      18.638   7.356  13.067  1.00  0.00    -0.388 OA
ATOM     52  HO  UNL     1      18.158   6.576  13.317  1.00  0.00     0.210 HD
ENDBRANCH  47  51
BRANCH  48  53
HETATM   53  O   UNL     1      18.089   6.798  15.720  1.00  0.00    -0.390 OA
ATOM     54  HO  UNL     1      17.672   6.110  15.217  1.00  0.00     0.210 HD
ENDBRANCH  48  53
BRANCH  49  55
HETATM   55  C   UNL     1      21.702   7.551  16.347  1.00  0.00     0.159 C 
BRANCH  55  56
HETATM   56  N   UNL     1      22.509   8.395  17.201  1.00  0.00    -0.341 N 
HETATM   57  C   UNL     1      23.298   7.885  18.167  1.00  0.00     0.316 C 
HETATM   58  O   UNL     1      23.333   6.681  18.418  1.00  0.00    -0.247 OA
HETATM   59  N   UNL     1      24.011   8.805  18.862  1.00  0.00    -0.342 N 
ATOM     60  HN  UNL     1      23.808   9.794  18.716  1.00  0.00     0.164 HD
ATOM     61  HN  UNL     1      22.481   9.406  17.068  1.00  0.00     0.164 HD
BRANCH  59  62
HETATM   62  C   UNL     1      25.056   8.440  19.809  1.00  0.00     0.151 C 
BRANCH  62  63
HETATM   63  C   UNL     1      25.332   9.595  20.743  1.00  0.00     0.249 C 
BRANCH  63  64
HETATM   64  N   UNL     1      25.079  10.888  20.086  1.00  0.00    -0.078 N 
ATOM     65  HN3 UNL     1      25.787  11.579  20.333  1.00  0.00     0.274 HD
ATOM     66  HN2 UNL     1      25.252  10.838  19.082  1.00  0.00     0.274 HD
ATOM     67  HN1 UNL     1      24.139  11.229  20.287  1.00  0.00     0.274 HD
ENDBRANCH  63  64
ENDBRANCH  62  63
ENDBRANCH  59  62
ENDBRANCH  55  56
ENDBRANCH  49  55
ENDBRANCH   2  46
BRANCH   6  68
HETATM   68  N   UNL     1      22.073  13.365  11.254  1.00  0.00    -0.383 N 
ATOM     69  HN2 UNL     1      22.829  14.045  11.324  1.00  0.00     0.157 HD
ATOM     70  HN1 UNL     1      21.422  13.462  10.474  1.00  0.00     0.157 HD
ENDBRANCH   6  68
TORSDOF 20
ENDMDL
MODEL 9
REMARK VINA RESULT:    -8.334      5.336     13.071
REMARK INTER + INTRA:         -19.063
REMARK INTER:                 -15.797
REMARK INTRA:                  -3.266
REMARK UNBOUND:                -2.690
REMARK  20 active torsions:
REMARK  status: ('A' for Active; 'I' for Inactive)
REMARK       I    between atoms: N_1  and  C_20 
REMARK    1  A    between atoms: N_1  and  C_9 
REMARK    2  A    between atoms: C_3  and  O_65 
REMARK    3  A    between atoms: C_4  and  C_7 
REMARK       I    between atoms: N_5  and  C_20 
REMARK    4  A    between atoms: N_5  and  C_17 
REMARK    5  A    between atoms: C_9  and  C_26 
REMARK    6  A    between atoms: O_10  and  C_34 
REMARK    7  A    between atoms: C_12  and  N_14 
REMARK    8  A    between atoms: C_13  and  O_18 
REMARK    9  A    between atoms: C_15  and  C_17 
REMARK   10  A    between atoms: N_21  and  C_29 
REMARK   11  A    between atoms: N_21  and  C_40 
REMARK   12  A    between atoms: N_21  and  C_30 
REMARK   13  A    between atoms: N_22  and  C_26 
REMARK   14  A    between atoms: C_28  and  C_29 
REMARK   15  A    between atoms: C_30  and  C_31 
REMARK   16  A    between atoms: C_32  and  N_55 
REMARK   17  A    between atoms: C_33  and  O_67 
REMARK   18  A    between atoms: C_39  and  N_62 
REMARK   19  A    between atoms: C_40  and  C_41 
REMARK   20  A    between atoms: C_45  and  N_52 
ROOT
HETATM    1  C   UNL     1      18.591  11.371  12.903  1.00  0.00     0.168 A 
HETATM    2  N   UNL     1      19.506  10.514  13.499  1.00  0.00    -0.279 N 
HETATM    3  C   UNL     1      20.522  12.120  12.397  1.00  0.00     0.123 A 
HETATM    4  C   UNL     1      20.748  11.000  13.177  1.00  0.00     0.143 A 
HETATM    5  C   UNL     1      22.931  11.211  13.004  1.00  0.00     0.183 A 
HETATM    6  C   UNL     1      21.654  12.788  11.898  1.00  0.00     0.131 A 
HETATM    7  N   UNL     1      19.163  12.359  12.243  1.00  0.00    -0.329 N 
ATOM      8  HN  UNL     1      18.713  13.122  11.737  1.00  0.00     0.168 HD
HETATM    9  N   UNL     1      21.935  10.493  13.524  1.00  0.00    -0.336 N 
ATOM     10  HN  UNL     1      22.062   9.667  14.107  1.00  0.00     0.168 HD
HETATM   11  N   UNL     1      22.864  12.304  12.243  1.00  0.00    -0.337 N 
ATOM     12  HN  UNL     1      23.716  12.766  11.926  1.00  0.00     0.168 HD
ENDROOT
BRANCH   1  13
HETATM   13  C   UNL     1      17.191  11.162  12.980  1.00  0.00    -0.028 C 
HETATM   14  C   UNL     1      16.035  10.889  12.892  1.00  0.00    -0.068 C 
BRANCH  14  15
HETATM   15  C   UNL     1      14.584  10.636  12.948  1.00  0.00     0.367 C 
BRANCH  15  16
HETATM   16  N   UNL     1      14.056   9.887  11.803  1.00  0.00     0.111 N 
BRANCH  16  17
HETATM   17  C   UNL     1      12.624   9.618  11.935  1.00  0.00     0.386 C 
BRANCH  17  18
HETATM   18  C   UNL     1      12.156   8.945  13.206  1.00  0.00     0.202 C 
HETATM   19  O   UNL     1      11.275   9.608  13.917  1.00  0.00    -0.647 OA
HETATM   20  O   UNL     1      12.586   7.856  13.546  1.00  0.00    -0.647 OA
ENDBRANCH  17  18
ENDBRANCH  16  17
BRANCH  16  21
HETATM   21  C   UNL     1      14.423  10.430  10.484  1.00  0.00     0.308 C 
BRANCH  21  22
HETATM   22  C   UNL     1      15.155   9.369   9.689  1.00  0.00     0.184 C 
HETATM   23  C   UNL     1      16.289   9.923   8.835  1.00  0.00     0.182 C 
HETATM   24  C   UNL     1      16.463   8.825   7.774  1.00  0.00     0.198 C 
HETATM   25  C   UNL     1      15.088   8.145   7.758  1.00  0.00     0.262 C 
HETATM   26  O   UNL     1      14.259   8.790   8.720  1.00  0.00    -0.354 OA
BRANCH  23  27
HETATM   27  O   UNL     1      17.470  10.040   9.604  1.00  0.00    -0.390 OA
ATOM     28  HO  UNL     1      17.603   9.248  10.113  1.00  0.00     0.210 HD
ENDBRANCH  23  27
BRANCH  24  29
HETATM   29  O   UNL     1      17.429   7.848   8.158  1.00  0.00    -0.388 OA
ATOM     30  HO  UNL     1      17.954   7.643   7.393  1.00  0.00     0.210 HD
ENDBRANCH  24  29
BRANCH  25  31
HETATM   31  N   UNL     1      14.426   8.143   6.477  1.00  0.00    -0.297 N 
HETATM   32  C   UNL     1      14.454   9.093   5.485  1.00  0.00     0.188 A 
HETATM   33  N   UNL     1      13.826   8.737   4.389  1.00  0.00    -0.346 N 
HETATM   34  C   UNL     1      13.348   7.466   4.683  1.00  0.00     0.122 A 
ATOM     35  HN  UNL     1      13.715   9.268   3.525  1.00  0.00     0.167 HD
HETATM   36  C   UNL     1      12.622   6.523   3.929  1.00  0.00     0.131 A 
HETATM   37  C   UNL     1      13.702   7.096   5.970  1.00  0.00     0.142 A 
HETATM   38  N   UNL     1      12.348   5.337   4.512  1.00  0.00    -0.337 N 
HETATM   39  C   UNL     1      12.740   5.127   5.770  1.00  0.00     0.183 A 
ATOM     40  HN  UNL     1      11.849   4.611   3.999  1.00  0.00     0.168 HD
HETATM   41  N   UNL     1      13.418   5.934   6.579  1.00  0.00    -0.336 N 
ATOM     42  HN  UNL     1      13.686   5.702   7.536  1.00  0.00     0.168 HD
BRANCH  36  43
HETATM   43  N   UNL     1      12.168   6.743   2.685  1.00  0.00    -0.383 N 
ATOM     44  HN2 UNL     1      11.277   7.193   2.473  1.00  0.00     0.157 HD
ATOM     45  HN1 UNL     1      12.734   6.425   1.898  1.00  0.00     0.157 HD
ENDBRANCH  36  43
ENDBRANCH  25  31
ENDBRANCH  21  22
ENDBRANCH  16  21
ENDBRANCH  15  16
ENDBRANCH  14  15
ENDBRANCH   1  13
BRANCH   2  46
HETATM   46  C   UNL     1      19.275   9.349  14.335  1.00  0.00     0.263 C 
HETATM   47  C   UNL     1      19.485   7.987  13.682  1.00  0.00     0.198 C 
HETATM   48  C   UNL     1      19.499   7.137  14.942  1.00  0.00     0.181 C 
HETATM   49  C   UNL     1      20.367   7.987  15.867  1.00  0.00     0.173 C 
HETATM   50  O   UNL     1      20.144   9.364  15.451  1.00  0.00    -0.354 OA
BRANCH  47  51
HETATM   51  O   UNL     1      18.437   7.628  12.793  1.00  0.00    -0.388 OA
ATOM     52  HO  UNL     1      17.593   7.980  13.050  1.00  0.00     0.210 HD
ENDBRANCH  47  51
BRANCH  48  53
HETATM   53  O   UNL     1      18.188   6.893  15.448  1.00  0.00    -0.390 OA
ATOM     54  HO  UNL     1      18.002   7.398  16.230  1.00  0.00     0.210 HD
ENDBRANCH  48  53
BRANCH  49  55
HETATM   55  C   UNL     1      21.841   7.663  15.725  1.00  0.00     0.159 C 
BRANCH  55  56
HETATM   56  N   UNL     1      22.143   6.512  14.901  1.00  0.00    -0.341 N 
HETATM   57  C   UNL     1      22.851   6.618  13.760  1.00  0.00     0.316 C 
HETATM   58  O   UNL     1      23.232   7.703  13.322  1.00  0.00    -0.247 OA
HETATM   59  N   UNL     1      23.072   5.445  13.118  1.00  0.00    -0.342 N 
ATOM     60  HN  UNL     1      22.586   4.609  13.445  1.00  0.00     0.164 HD
ATOM     61  HN  UNL     1      21.808   5.594  15.193  1.00  0.00     0.164 HD
BRANCH  59  62
HETATM   62  C   UNL     1      23.973   5.327  11.980  1.00  0.00     0.151 C 
BRANCH  62  63
HETATM   63  C   UNL     1      23.269   5.766  10.717  1.00  0.00     0.249 C 
BRANCH  63  64
HETATM   64  N   UNL     1      23.868   6.995  10.170  1.00  0.00    -0.078 N 
ATOM     65  HN3 UNL     1      24.091   7.663  10.907  1.00  0.00     0.274 HD
ATOM     66  HN2 UNL     1      24.811   6.827   9.819  1.00  0.00     0.274 HD
ATOM     67  HN1 UNL     1      23.272   7.412   9.455  1.00  0.00     0.274 HD
ENDBRANCH  63  64
ENDBRANCH  62  63
ENDBRANCH  59  62
ENDBRANCH  55  56
ENDBRANCH  49  55
ENDBRANCH   2  46
BRANCH   6  68
HETATM   68  N   UNL     1      21.599  13.831  11.063  1.00  0.00    -0.383 N 
ATOM     69  HN2 UNL     1      22.184  14.643  11.258  1.00  0.00     0.157 HD
ATOM     70  HN1 UNL     1      21.036  13.850  10.212  1.00  0.00     0.157 HD
ENDBRANCH   6  68
TORSDOF 20
ENDMDL
MODEL 10
REMARK VINA RESULT:    -8.296      6.574     14.875
REMARK INTER + INTRA:         -18.987
REMARK INTER:                 -14.864
REMARK INTRA:                  -4.123
REMARK UNBOUND:                -2.690
REMARK  20 active torsions:
REMARK  status: ('A' for Active; 'I' for Inactive)
REMARK       I    between atoms: N_1  and  C_20 
REMARK    1  A    between atoms: N_1  and  C_9 
REMARK    2  A    between atoms: C_3  and  O_65 
REMARK    3  A    between atoms: C_4  and  C_7 
REMARK       I    between atoms: N_5  and  C_20 
REMARK    4  A    between atoms: N_5  and  C_17 
REMARK    5  A    between atoms: C_9  and  C_26 
REMARK    6  A    between atoms: O_10  and  C_34 
REMARK    7  A    between atoms: C_12  and  N_14 
REMARK    8  A    between atoms: C_13  and  O_18 
REMARK    9  A    between atoms: C_15  and  C_17 
REMARK   10  A    between atoms: N_21  and  C_29 
REMARK   11  A    between atoms: N_21  and  C_40 
REMARK   12  A    between atoms: N_21  and  C_30 
REMARK   13  A    between atoms: N_22  and  C_26 
REMARK   14  A    between atoms: C_28  and  C_29 
REMARK   15  A    between atoms: C_30  and  C_31 
REMARK   16  A    between atoms: C_32  and  N_55 
REMARK   17  A    between atoms: C_33  and  O_67 
REMARK   18  A    between atoms: C_39  and  N_62 
REMARK   19  A    between atoms: C_40  and  C_41 
REMARK   20  A    between atoms: C_45  and  N_52 
ROOT
HETATM    1  C   UNL     1      19.067   6.026   8.904  1.00  0.00     0.168 A 
HETATM    2  N   UNL     1      18.704   7.033   9.788  1.00  0.00    -0.279 N 
HETATM    3  C   UNL     1      20.842   6.557   9.959  1.00  0.00     0.123 A 
HETATM    4  C   UNL     1      19.847   7.377  10.463  1.00  0.00     0.143 A 
HETATM    5  C   UNL     1      21.234   8.339  11.874  1.00  0.00     0.183 A 
HETATM    6  C   UNL     1      22.123   6.688  10.525  1.00  0.00     0.131 A 
HETATM    7  N   UNL     1      20.349   5.722   8.967  1.00  0.00    -0.329 N 
ATOM      8  HN  UNL     1      20.860   5.033   8.414  1.00  0.00     0.168 HD
HETATM    9  N   UNL     1      19.980   8.298  11.423  1.00  0.00    -0.336 N 
ATOM     10  HN  UNL     1      19.224   8.890  11.764  1.00  0.00     0.168 HD
HETATM   11  N   UNL     1      22.286   7.618  11.487  1.00  0.00    -0.337 N 
ATOM     12  HN  UNL     1      23.201   7.767  11.912  1.00  0.00     0.168 HD
ENDROOT
BRANCH   1  13
HETATM   13  C   UNL     1      18.130   5.382   8.058  1.00  0.00    -0.028 C 
HETATM   14  C   UNL     1      17.231   4.842   7.492  1.00  0.00    -0.068 C 
BRANCH  14  15
HETATM   15  C   UNL     1      16.225   4.186   6.637  1.00  0.00     0.367 C 
BRANCH  15  16
HETATM   16  N   UNL     1      14.849   4.639   6.868  1.00  0.00     0.111 N 
BRANCH  16  17
HETATM   17  C   UNL     1      14.059   3.645   7.594  1.00  0.00     0.386 C 
BRANCH  17  18
HETATM   18  C   UNL     1      13.202   2.703   6.776  1.00  0.00     0.202 C 
HETATM   19  O   UNL     1      12.665   3.210   5.692  1.00  0.00    -0.647 OA
HETATM   20  O   UNL     1      13.020   1.548   7.119  1.00  0.00    -0.647 OA
ENDBRANCH  17  18
ENDBRANCH  16  17
BRANCH  16  21
HETATM   21  C   UNL     1      14.729   5.994   7.430  1.00  0.00     0.308 C 
BRANCH  21  22
HETATM   22  C   UNL     1      14.399   6.971   6.320  1.00  0.00     0.184 C 
HETATM   23  C   UNL     1      13.438   8.074   6.746  1.00  0.00     0.182 C 
HETATM   24  C   UNL     1      12.856   8.536   5.400  1.00  0.00     0.198 C 
HETATM   25  C   UNL     1      13.047   7.305   4.506  1.00  0.00     0.262 C 
HETATM   26  O   UNL     1      13.681   6.287   5.275  1.00  0.00    -0.354 OA
BRANCH  23  27
HETATM   27  O   UNL     1      14.147   9.136   7.353  1.00  0.00    -0.390 OA
ATOM     28  HO  UNL     1      14.696   8.800   8.052  1.00  0.00     0.210 HD
ENDBRANCH  23  27
BRANCH  24  29
HETATM   29  O   UNL     1      13.600   9.610   4.828  1.00  0.00    -0.388 OA
ATOM     30  HO  UNL     1      13.459  10.380   5.366  1.00  0.00     0.210 HD
ENDBRANCH  24  29
BRANCH  25  31
HETATM   31  N   UNL     1      11.835   6.783   3.924  1.00  0.00    -0.297 N 
HETATM   32  C   UNL     1      11.435   6.782   2.610  1.00  0.00     0.188 A 
HETATM   33  N   UNL     1      10.318   6.128   2.394  1.00  0.00    -0.346 N 
HETATM   34  C   UNL     1       9.956   5.671   3.656  1.00  0.00     0.122 A 
ATOM     35  HN  UNL     1       9.830   5.988   1.509  1.00  0.00     0.167 HD
HETATM   36  C   UNL     1       8.880   4.884   4.112  1.00  0.00     0.131 A 
HETATM   37  C   UNL     1      10.876   6.079   4.606  1.00  0.00     0.142 A 
HETATM   38  N   UNL     1       8.845   4.578   5.426  1.00  0.00    -0.337 N 
HETATM   39  C   UNL     1       9.797   5.058   6.229  1.00  0.00     0.183 A 
ATOM     40  HN  UNL     1       8.102   3.988   5.800  1.00  0.00     0.168 HD
HETATM   41  N   UNL     1      10.848   5.810   5.921  1.00  0.00    -0.336 N 
ATOM     42  HN  UNL     1      11.540   6.140   6.594  1.00  0.00     0.168 HD
BRANCH  36  43
HETATM   43  N   UNL     1       7.883   4.445   3.327  1.00  0.00    -0.383 N 
ATOM     44  HN2 UNL     1       7.115   5.031   2.998  1.00  0.00     0.157 HD
ATOM     45  HN1 UNL     1       7.875   3.462   3.056  1.00  0.00     0.157 HD
ENDBRANCH  36  43
ENDBRANCH  25  31
ENDBRANCH  21  22
ENDBRANCH  16  21
ENDBRANCH  15  16
ENDBRANCH  14  15
ENDBRANCH   1  13
BRANCH   2  46
HETATM   46  C   UNL     1      17.414   7.668   9.988  1.00  0.00     0.263 C 
HETATM   47  C   UNL     1      16.572   7.154  11.152  1.00  0.00     0.198 C 
HETATM   48  C   UNL     1      15.555   8.282  11.205  1.00  0.00     0.181 C 
HETATM   49  C   UNL     1      16.454   9.505  11.037  1.00  0.00     0.173 C 
HETATM   50  O   UNL     1      17.579   9.052  10.232  1.00  0.00    -0.354 OA
BRANCH  47  51
HETATM   51  O   UNL     1      15.975   5.892  10.892  1.00  0.00    -0.388 OA
ATOM     52  HO  UNL     1      16.077   5.277  11.608  1.00  0.00     0.210 HD
ENDBRANCH  47  51
BRANCH  48  53
HETATM   53  O   UNL     1      14.556   8.162  10.194  1.00  0.00    -0.390 OA
ATOM     54  HO  UNL     1      14.901   8.315   9.323  1.00  0.00     0.210 HD
ENDBRANCH  48  53
BRANCH  49  55
HETATM   55  C   UNL     1      16.976  10.016  12.366  1.00  0.00     0.159 C 
BRANCH  55  56
HETATM   56  N   UNL     1      17.658  11.292  12.311  1.00  0.00    -0.341 N 
HETATM   57  C   UNL     1      18.867  11.479  12.874  1.00  0.00     0.316 C 
HETATM   58  O   UNL     1      19.436  10.596  13.516  1.00  0.00    -0.247 OA
HETATM   59  N   UNL     1      19.383  12.721  12.711  1.00  0.00    -0.342 N 
ATOM     60  HN  UNL     1      18.788  13.450  12.316  1.00  0.00     0.164 HD
ATOM     61  HN  UNL     1      17.209  12.072  11.832  1.00  0.00     0.164 HD
BRANCH  59  62
HETATM   62  C   UNL     1      20.752  13.059  13.076  1.00  0.00     0.151 C 
BRANCH  62  63
HETATM   63  C   UNL     1      21.684  12.750  11.928  1.00  0.00     0.249 C 
BRANCH  63  64
HETATM   64  N   UNL     1      21.691  13.839  10.936  1.00  0.00    -0.078 N 
ATOM     65  HN3 UNL     1      22.493  14.457  11.064  1.00  0.00     0.274 HD
ATOM     66  HN2 UNL     1      21.908  13.492  10.002  1.00  0.00     0.274 HD
ATOM     67  HN1 UNL     1      20.814  14.358  10.948  1.00  0.00     0.274 HD
ENDBRANCH  63  64
ENDBRANCH  62  63
ENDBRANCH  59  62
ENDBRANCH  55  56
ENDBRANCH  49  55
ENDBRANCH   2  46
BRANCH   6  68
HETATM   68  N   UNL     1      23.163   5.909  10.206  1.00  0.00    -0.383 N 
ATOM     69  HN2 UNL     1      24.095   6.323  10.195  1.00  0.00     0.157 HD
ATOM     70  HN1 UNL     1      23.089   4.910  10.014  1.00  0.00     0.157 HD
ENDBRANCH   6  68
TORSDOF 20
ENDMDL
MODEL 11
REMARK VINA RESULT:    -8.265      2.849     11.291
REMARK INTER + INTRA:         -18.928
REMARK INTER:                 -14.802
REMARK INTRA:                  -4.125
REMARK UNBOUND:                -2.690
REMARK  20 active torsions:
REMARK  status: ('A' for Active; 'I' for Inactive)
REMARK       I    between atoms: N_1  and  C_20 
REMARK    1  A    between atoms: N_1  and  C_9 
REMARK    2  A    between atoms: C_3  and  O_65 
REMARK    3  A    between atoms: C_4  and  C_7 
REMARK       I    between atoms: N_5  and  C_20 
REMARK    4  A    between atoms: N_5  and  C_17 
REMARK    5  A    between atoms: C_9  and  C_26 
REMARK    6  A    between atoms: O_10  and  C_34 
REMARK    7  A    between atoms: C_12  and  N_14 
REMARK    8  A    between atoms: C_13  and  O_18 
REMARK    9  A    between atoms: C_15  and  C_17 
REMARK   10  A    between atoms: N_21  and  C_29 
REMARK   11  A    between atoms: N_21  and  C_40 
REMARK   12  A    between atoms: N_21  and  C_30 
REMARK   13  A    between atoms: N_22  and  C_26 
REMARK   14  A    between atoms: C_28  and  C_29 
REMARK   15  A    between atoms: C_30  and  C_31 
REMARK   16  A    between atoms: C_32  and  N_55 
REMARK   17  A    between atoms: C_33  and  O_67 
REMARK   18  A    between atoms: C_39  and  N_62 
REMARK   19  A    between atoms: C_40  and  C_41 
REMARK   20  A    between atoms: C_45  and  N_52 
ROOT
HETATM    1  C   UNL     1      19.420  10.321  13.695  1.00  0.00     0.168 A 
HETATM    2  N   UNL     1      20.414   9.664  14.408  1.00  0.00    -0.279 N 
HETATM    3  C   UNL     1      21.264  11.210  13.099  1.00  0.00     0.123 A 
HETATM    4  C   UNL     1      21.599  10.241  14.027  1.00  0.00     0.143 A 
HETATM    5  C   UNL     1      23.747  10.675  13.836  1.00  0.00     0.183 A 
HETATM    6  C   UNL     1      22.324  11.929  12.517  1.00  0.00     0.131 A 
HETATM    7  N   UNL     1      19.891  11.268  12.907  1.00  0.00    -0.329 N 
ATOM      8  HN  UNL     1      19.367  11.897  12.298  1.00  0.00     0.168 HD
HETATM    9  N   UNL     1      22.829   9.926  14.445  1.00  0.00    -0.336 N 
ATOM     10  HN  UNL     1      23.037   9.207  15.139  1.00  0.00     0.168 HD
HETATM   11  N   UNL     1      23.573  11.638  12.930  1.00  0.00    -0.337 N 
ATOM     12  HN  UNL     1      24.373  12.147  12.556  1.00  0.00     0.168 HD
ENDROOT
BRANCH   1  13
HETATM   13  C   UNL     1      18.052   9.965  13.794  1.00  0.00    -0.028 C 
HETATM   14  C   UNL     1      16.867   9.836  13.819  1.00  0.00    -0.068 C 
BRANCH  14  15
HETATM   15  C   UNL     1      15.435   9.497  13.894  1.00  0.00     0.367 C 
BRANCH  15  16
HETATM   16  N   UNL     1      14.850   9.064  12.621  1.00  0.00     0.111 N 
BRANCH  16  17
HETATM   17  C   UNL     1      14.825  10.142  11.632  1.00  0.00     0.386 C 
BRANCH  17  18
HETATM   18  C   UNL     1      13.472  10.599  11.134  1.00  0.00     0.202 C 
HETATM   19  O   UNL     1      13.384  10.844   9.848  1.00  0.00    -0.647 OA
HETATM   20  O   UNL     1      12.528  10.740  11.892  1.00  0.00    -0.647 OA
ENDBRANCH  17  18
ENDBRANCH  16  17
BRANCH  16  21
HETATM   21  C   UNL     1      15.392   7.803  12.087  1.00  0.00     0.308 C 
BRANCH  21  22
HETATM   22  C   UNL     1      16.087   8.074  10.769  1.00  0.00     0.184 C 
HETATM   23  C   UNL     1      15.673   7.118   9.655  1.00  0.00     0.182 C 
HETATM   24  C   UNL     1      16.857   7.223   8.681  1.00  0.00     0.198 C 
HETATM   25  C   UNL     1      18.006   7.682   9.588  1.00  0.00     0.262 C 
HETATM   26  O   UNL     1      17.500   7.830  10.910  1.00  0.00    -0.354 OA
BRANCH  23  27
HETATM   27  O   UNL     1      14.493   7.577   9.028  1.00  0.00    -0.390 OA
ATOM     28  HO  UNL     1      14.658   7.734   8.105  1.00  0.00     0.210 HD
ENDBRANCH  23  27
BRANCH  24  29
HETATM   29  O   UNL     1      16.656   8.229   7.689  1.00  0.00    -0.388 OA
ATOM     30  HO  UNL     1      16.632   9.070   8.130  1.00  0.00     0.210 HD
ENDBRANCH  24  29
BRANCH  25  31
HETATM   31  N   UNL     1      19.152   6.807   9.606  1.00  0.00    -0.297 N 
HETATM   32  C   UNL     1      19.389   5.674   8.866  1.00  0.00     0.188 A 
HETATM   33  N   UNL     1      20.585   5.163   9.043  1.00  0.00    -0.346 N 
HETATM   34  C   UNL     1      21.174   6.018   9.968  1.00  0.00     0.122 A 
ATOM     35  HN  UNL     1      20.988   4.335   8.606  1.00  0.00     0.167 HD
HETATM   36  C   UNL     1      22.453   6.052  10.556  1.00  0.00     0.131 A 
HETATM   37  C   UNL     1      20.296   7.027  10.329  1.00  0.00     0.142 A 
HETATM   38  N   UNL     1      22.723   7.067  11.404  1.00  0.00    -0.337 N 
HETATM   39  C   UNL     1      21.770   7.960  11.671  1.00  0.00     0.183 A 
ATOM     40  HN  UNL     1      23.644   7.150  11.834  1.00  0.00     0.168 HD
HETATM   41  N   UNL     1      20.533   8.030  11.189  1.00  0.00    -0.336 N 
ATOM     42  HN  UNL     1      19.854   8.749  11.440  1.00  0.00     0.168 HD
BRANCH  36  43
HETATM   43  N   UNL     1      23.403   5.126  10.345  1.00  0.00    -0.383 N 
ATOM     44  HN2 UNL     1      23.314   4.145  10.609  1.00  0.00     0.157 HD
ATOM     45  HN1 UNL     1      24.278   5.419   9.910  1.00  0.00     0.157 HD
ENDBRANCH  36  43
ENDBRANCH  25  31
ENDBRANCH  21  22
ENDBRANCH  16  21
ENDBRANCH  15  16
ENDBRANCH  14  15
ENDBRANCH   1  13
BRANCH   2  46
HETATM   46  C   UNL     1      20.299   8.606  15.396  1.00  0.00     0.263 C 
HETATM   47  C   UNL     1      20.656   7.197  14.933  1.00  0.00     0.198 C 
HETATM   48  C   UNL     1      20.749   6.533  16.296  1.00  0.00     0.181 C 
HETATM   49  C   UNL     1      21.515   7.587  17.093  1.00  0.00     0.173 C 
HETATM   50  O   UNL     1      21.153   8.864  16.494  1.00  0.00    -0.354 OA
BRANCH  47  51
HETATM   51  O   UNL     1      19.660   6.613  14.107  1.00  0.00    -0.388 OA
ATOM     52  HO  UNL     1      18.977   7.225  13.858  1.00  0.00     0.210 HD
ENDBRANCH  47  51
BRANCH  48  53
HETATM   53  O   UNL     1      19.467   6.224  16.839  1.00  0.00    -0.390 OA
ATOM     54  HO  UNL     1      18.942   7.000  16.995  1.00  0.00     0.210 HD
ENDBRANCH  48  53
BRANCH  49  55
HETATM   55  C   UNL     1      23.017   7.404  16.987  1.00  0.00     0.159 C 
BRANCH  55  56
HETATM   56  N   UNL     1      23.752   7.624  18.214  1.00  0.00    -0.341 N 
HETATM   57  C   UNL     1      24.204   8.843  18.564  1.00  0.00     0.316 C 
HETATM   58  O   UNL     1      24.070   9.827  17.838  1.00  0.00    -0.247 OA
HETATM   59  N   UNL     1      24.851   8.888  19.755  1.00  0.00    -0.342 N 
ATOM     60  HN  UNL     1      25.073   8.010  20.224  1.00  0.00     0.164 HD
ATOM     61  HN  UNL     1      23.934   6.832  18.831  1.00  0.00     0.164 HD
BRANCH  59  62
HETATM   62  C   UNL     1      25.240  10.138  20.393  1.00  0.00     0.151 C 
BRANCH  62  63
HETATM   63  C   UNL     1      25.338   9.946  21.888  1.00  0.00     0.249 C 
BRANCH  63  64
HETATM   64  N   UNL     1      26.733   9.741  22.312  1.00  0.00    -0.078 N 
ATOM     65  HN3 UNL     1      27.278  10.599  22.235  1.00  0.00     0.274 HD
ATOM     66  HN2 UNL     1      26.800   9.601  23.320  1.00  0.00     0.274 HD
ATOM     67  HN1 UNL     1      27.168   8.975  21.798  1.00  0.00     0.274 HD
ENDBRANCH  63  64
ENDBRANCH  62  63
ENDBRANCH  59  62
ENDBRANCH  55  56
ENDBRANCH  49  55
ENDBRANCH   2  46
BRANCH   6  68
HETATM   68  N   UNL     1      22.167  12.834  11.545  1.00  0.00    -0.383 N 
ATOM     69  HN2 UNL     1      22.944  13.002  10.906  1.00  0.00     0.157 HD
ATOM     70  HN1 UNL     1      21.298  13.341  11.373  1.00  0.00     0.157 HD
ENDBRANCH   6  68
TORSDOF 20
ENDMDL
MODEL 12
REMARK VINA RESULT:    -8.239      6.555     10.622
REMARK INTER + INTRA:         -18.875
REMARK INTER:                 -16.023
REMARK INTRA:                  -2.852
REMARK UNBOUND:                -2.690
REMARK  20 active torsions:
REMARK  status: ('A' for Active; 'I' for Inactive)
REMARK       I    between atoms: N_1  and  C_20 
REMARK    1  A    between atoms: N_1  and  C_9 
REMARK    2  A    between atoms: C_3  and  O_65 
REMARK    3  A    between atoms: C_4  and  C_7 
REMARK       I    between atoms: N_5  and  C_20 
REMARK    4  A    between atoms: N_5  and  C_17 
REMARK    5  A    between atoms: C_9  and  C_26 
REMARK    6  A    between atoms: O_10  and  C_34 
REMARK    7  A    between atoms: C_12  and  N_14 
REMARK    8  A    between atoms: C_13  and  O_18 
REMARK    9  A    between atoms: C_15  and  C_17 
REMARK   10  A    between atoms: N_21  and  C_29 
REMARK   11  A    between atoms: N_21  and  C_40 
REMARK   12  A    between atoms: N_21  and  C_30 
REMARK   13  A    between atoms: N_22  and  C_26 
REMARK   14  A    between atoms: C_28  and  C_29 
REMARK   15  A    between atoms: C_30  and  C_31 
REMARK   16  A    between atoms: C_32  and  N_55 
REMARK   17  A    between atoms: C_33  and  O_67 
REMARK   18  A    between atoms: C_39  and  N_62 
REMARK   19  A    between atoms: C_40  and  C_41 
REMARK   20  A    between atoms: C_45  and  N_52 
ROOT
HETATM    1  C   UNL     1      15.919   5.608   7.161  1.00  0.00     0.168 A 
HETATM    2  N   UNL     1      14.582   5.411   6.844  1.00  0.00    -0.279 N 
HETATM    3  C   UNL     1      15.800   3.677   6.266  1.00  0.00     0.123 A 
HETATM    4  C   UNL     1      14.506   4.166   6.273  1.00  0.00     0.143 A 
HETATM    5  C   UNL     1      13.725   2.362   5.287  1.00  0.00     0.183 A 
HETATM    6  C   UNL     1      16.000   2.411   5.686  1.00  0.00     0.131 A 
HETATM    7  N   UNL     1      16.682   4.581   6.842  1.00  0.00    -0.329 N 
ATOM      8  HN  UNL     1      17.686   4.475   6.985  1.00  0.00     0.168 HD
HETATM    9  N   UNL     1      13.417   3.552   5.801  1.00  0.00    -0.336 N 
ATOM     10  HN  UNL     1      12.475   3.943   5.830  1.00  0.00     0.168 HD
HETATM   11  N   UNL     1      14.915   1.766   5.212  1.00  0.00    -0.337 N 
ATOM     12  HN  UNL     1      15.004   0.836   4.804  1.00  0.00     0.168 HD
ENDROOT
BRANCH   1  13
HETATM   13  C   UNL     1      16.396   6.814   7.734  1.00  0.00    -0.028 C 
HETATM   14  C   UNL     1      16.955   7.787   8.135  1.00  0.00    -0.068 C 
BRANCH  14  15
HETATM   15  C   UNL     1      17.481   9.042   8.701  1.00  0.00     0.367 C 
BRANCH  15  16
HETATM   16  N   UNL     1      16.624   9.648   9.726  1.00  0.00     0.111 N 
BRANCH  16  17
HETATM   17  C   UNL     1      15.835  10.759   9.195  1.00  0.00     0.386 C 
BRANCH  17  18
HETATM   18  C   UNL     1      14.365  10.511   8.941  1.00  0.00     0.202 C 
HETATM   19  O   UNL     1      14.073   9.865   7.837  1.00  0.00    -0.647 OA
HETATM   20  O   UNL     1      13.509  10.901   9.716  1.00  0.00    -0.647 OA
ENDBRANCH  17  18
ENDBRANCH  16  17
BRANCH  16  21
HETATM   21  C   UNL     1      15.822   8.692  10.507  1.00  0.00     0.308 C 
BRANCH  21  22
HETATM   22  C   UNL     1      16.099   8.892  11.983  1.00  0.00     0.184 C 
HETATM   23  C   UNL     1      16.037  10.350  12.421  1.00  0.00     0.182 C 
HETATM   24  C   UNL     1      16.866  10.336  13.715  1.00  0.00     0.198 C 
HETATM   25  C   UNL     1      17.772   9.112  13.526  1.00  0.00     0.262 C 
HETATM   26  O   UNL     1      17.458   8.513  12.273  1.00  0.00    -0.354 OA
BRANCH  23  27
HETATM   27  O   UNL     1      14.703  10.720  12.710  1.00  0.00    -0.390 OA
ATOM     28  HO  UNL     1      14.173  10.656  11.923  1.00  0.00     0.210 HD
ENDBRANCH  23  27
BRANCH  24  29
HETATM   29  O   UNL     1      16.062  10.109  14.872  1.00  0.00    -0.388 OA
ATOM     30  HO  UNL     1      15.994  10.931  15.344  1.00  0.00     0.210 HD
ENDBRANCH  24  29
BRANCH  25  31
HETATM   31  N   UNL     1      19.186   9.389  13.587  1.00  0.00    -0.297 N 
HETATM   32  C   UNL     1      20.212   8.573  13.998  1.00  0.00     0.188 A 
HETATM   33  N   UNL     1      21.406   9.092  13.828  1.00  0.00    -0.346 N 
HETATM   34  C   UNL     1      21.145  10.338  13.271  1.00  0.00     0.122 A 
ATOM     35  HN  UNL     1      22.311   8.678  14.052  1.00  0.00     0.167 HD
HETATM   36  C   UNL     1      21.986  11.377  12.825  1.00  0.00     0.131 A 
HETATM   37  C   UNL     1      19.782  10.536  13.130  1.00  0.00     0.142 A 
HETATM   38  N   UNL     1      21.398  12.465  12.283  1.00  0.00    -0.337 N 
HETATM   39  C   UNL     1      20.067  12.522  12.227  1.00  0.00     0.183 A 
ATOM     40  HN  UNL     1      21.964  13.232  11.920  1.00  0.00     0.168 HD
HETATM   41  N   UNL     1      19.175  11.619  12.619  1.00  0.00    -0.336 N 
ATOM     42  HN  UNL     1      18.164  11.733  12.543  1.00  0.00     0.168 HD
BRANCH  36  43
HETATM   43  N   UNL     1      23.325  11.360  12.930  1.00  0.00    -0.383 N 
ATOM     44  HN2 UNL     1      23.959  11.706  12.210  1.00  0.00     0.157 HD
ATOM     45  HN1 UNL     1      23.740  10.960  13.771  1.00  0.00     0.157 HD
ENDBRANCH  36  43
ENDBRANCH  25  31
ENDBRANCH  21  22
ENDBRANCH  16  21
ENDBRANCH  15  16
ENDBRANCH  14  15
ENDBRANCH   1  13
BRANCH   2  46
HETATM   46  C   UNL     1      13.439   6.277   7.073  1.00  0.00     0.263 C 
HETATM   47  C   UNL     1      12.958   7.102   5.884  1.00  0.00     0.198 C 
HETATM   48  C   UNL     1      11.613   7.534   6.443  1.00  0.00     0.181 C 
HETATM   49  C   UNL     1      11.117   6.232   7.070  1.00  0.00     0.173 C 
HETATM   50  O   UNL     1      12.317   5.515   7.475  1.00  0.00    -0.354 OA
BRANCH  47  51
HETATM   51  O   UNL     1      13.806   8.203   5.591  1.00  0.00    -0.388 OA
ATOM     52  HO  UNL     1      13.458   8.772   4.914  1.00  0.00     0.210 HD
ENDBRANCH  47  51
BRANCH  48  53
HETATM   53  O   UNL     1      11.730   8.610   7.372  1.00  0.00    -0.390 OA
ATOM     54  HO  UNL     1      12.368   9.257   7.098  1.00  0.00     0.210 HD
ENDBRANCH  48  53
BRANCH  49  55
HETATM   55  C   UNL     1      10.345   5.380   6.081  1.00  0.00     0.159 C 
BRANCH  55  56
HETATM   56  N   UNL     1      10.028   6.027   4.826  1.00  0.00    -0.341 N 
HETATM   57  C   UNL     1      10.627   5.675   3.671  1.00  0.00     0.316 C 
HETATM   58  O   UNL     1      11.516   4.826   3.625  1.00  0.00    -0.247 OA
HETATM   59  N   UNL     1      10.200   6.357   2.580  1.00  0.00    -0.342 N 
ATOM     60  HN  UNL     1       9.586   7.160   2.714  1.00  0.00     0.164 HD
ATOM     61  HN  UNL     1       9.332   6.772   4.815  1.00  0.00     0.164 HD
BRANCH  59  62
HETATM   62  C   UNL     1      10.584   5.990   1.224  1.00  0.00     0.151 C 
BRANCH  62  63
HETATM   63  C   UNL     1      10.312   7.140   0.282  1.00  0.00     0.249 C 
BRANCH  63  64
HETATM   64  N   UNL     1      11.420   7.327  -0.669  1.00  0.00    -0.078 N 
ATOM     65  HN3 UNL     1      11.405   8.259  -1.083  1.00  0.00     0.274 HD
ATOM     66  HN2 UNL     1      12.319   7.382  -0.190  1.00  0.00     0.274 HD
ATOM     67  HN1 UNL     1      11.421   6.601  -1.385  1.00  0.00     0.274 HD
ENDBRANCH  63  64
ENDBRANCH  62  63
ENDBRANCH  59  62
ENDBRANCH  55  56
ENDBRANCH  49  55
ENDBRANCH   2  46
BRANCH   6  68
HETATM   68  N   UNL     1      17.201   1.843   5.527  1.00  0.00    -0.383 N 
ATOM     69  HN2 UNL     1      17.822   1.785   6.333  1.00  0.00     0.157 HD
ATOM     70  HN1 UNL     1      17.520   1.422   4.654  1.00  0.00     0.157 HD
ENDBRANCH   6  68
TORSDOF 20
ENDMDL
MODEL 13
REMARK VINA RESULT:    -8.166      6.078     12.909
REMARK INTER + INTRA:         -18.732
REMARK INTER:                 -14.359
REMARK INTRA:                  -4.373
REMARK UNBOUND:                -2.690
REMARK  20 active torsions:
REMARK  status: ('A' for Active; 'I' for Inactive)
REMARK       I    between atoms: N_1  and  C_20 
REMARK    1  A    between atoms: N_1  and  C_9 
REMARK    2  A    between atoms: C_3  and  O_65 
REMARK    3  A    between atoms: C_4  and  C_7 
REMARK       I    between atoms: N_5  and  C_20 
REMARK    4  A    between atoms: N_5  and  C_17 
REMARK    5  A    between atoms: C_9  and  C_26 
REMARK    6  A    between atoms: O_10  and  C_34 
REMARK    7  A    between atoms: C_12  and  N_14 
REMARK    8  A    between atoms: C_13  and  O_18 
REMARK    9  A    between atoms: C_15  and  C_17 
REMARK   10  A    between atoms: N_21  and  C_29 
REMARK   11  A    between atoms: N_21  and  C_40 
REMARK   12  A    between atoms: N_21  and  C_30 
REMARK   13  A    between atoms: N_22  and  C_26 
REMARK   14  A    between atoms: C_28  and  C_29 
REMARK   15  A    between atoms: C_30  and  C_31 
REMARK   16  A    between atoms: C_32  and  N_55 
REMARK   17  A    between atoms: C_33  and  O_67 
REMARK   18  A    between atoms: C_39  and  N_62 
REMARK   19  A    between atoms: C_40  and  C_41 
REMARK   20  A    between atoms: C_45  and  N_52 
ROOT
HETATM    1  C   UNL     1      18.547  11.181  12.714  1.00  0.00     0.168 A 
HETATM    2  N   UNL     1      19.472  10.310  13.272  1.00  0.00    -0.279 N 
HETATM    3  C   UNL     1      20.463  12.045  12.359  1.00  0.00     0.123 A 
HETATM    4  C   UNL     1      20.704  10.869  13.047  1.00  0.00     0.143 A 
HETATM    5  C   UNL     1      22.882  11.178  12.987  1.00  0.00     0.183 A 
HETATM    6  C   UNL     1      21.586  12.797  11.969  1.00  0.00     0.131 A 
HETATM    7  N   UNL     1      19.103  12.244  12.168  1.00  0.00    -0.329 N 
ATOM      8  HN  UNL     1      18.641  13.031  11.711  1.00  0.00     0.168 HD
HETATM    9  N   UNL     1      21.897  10.379  13.398  1.00  0.00    -0.336 N 
ATOM     10  HN  UNL     1      22.036   9.510  13.913  1.00  0.00     0.168 HD
HETATM   11  N   UNL     1      22.800  12.331  12.321  1.00  0.00    -0.337 N 
ATOM     12  HN  UNL     1      23.643  12.851  12.082  1.00  0.00     0.168 HD
ENDROOT
BRANCH   1  13
HETATM   13  C   UNL     1      17.155  10.913  12.712  1.00  0.00    -0.028 C 
HETATM   14  C   UNL     1      15.967  10.856  12.779  1.00  0.00    -0.068 C 
BRANCH  14  15
HETATM   15  C   UNL     1      14.512  10.619  12.777  1.00  0.00     0.367 C 
BRANCH  15  16
HETATM   16  N   UNL     1      14.063   9.625  11.797  1.00  0.00     0.111 N 
BRANCH  16  17
HETATM   17  C   UNL     1      12.818   8.975  12.205  1.00  0.00     0.386 C 
BRANCH  17  18
HETATM   18  C   UNL     1      12.903   7.540  12.675  1.00  0.00     0.202 C 
HETATM   19  O   UNL     1      13.169   6.646  11.752  1.00  0.00    -0.647 OA
HETATM   20  O   UNL     1      12.722   7.240  13.843  1.00  0.00    -0.647 OA
ENDBRANCH  17  18
ENDBRANCH  16  17
BRANCH  16  21
HETATM   21  C   UNL     1      14.038  10.096  10.402  1.00  0.00     0.308 C 
BRANCH  21  22
HETATM   22  C   UNL     1      14.892   9.183   9.548  1.00  0.00     0.184 C 
HETATM   23  C   UNL     1      15.939   9.924   8.723  1.00  0.00     0.182 C 
HETATM   24  C   UNL     1      16.241   8.917   7.602  1.00  0.00     0.198 C 
HETATM   25  C   UNL     1      14.964   8.068   7.552  1.00  0.00     0.262 C 
HETATM   26  O   UNL     1      14.069   8.548   8.550  1.00  0.00    -0.354 OA
BRANCH  23  27
HETATM   27  O   UNL     1      17.102  10.148   9.494  1.00  0.00    -0.390 OA
ATOM     28  HO  UNL     1      16.917  10.776  10.183  1.00  0.00     0.210 HD
ENDBRANCH  23  27
BRANCH  24  29
HETATM   29  O   UNL     1      17.327   8.052   7.929  1.00  0.00    -0.388 OA
ATOM     30  HO  UNL     1      17.738   7.782   7.116  1.00  0.00     0.210 HD
ENDBRANCH  24  29
BRANCH  25  31
HETATM   31  N   UNL     1      14.296   8.052   6.274  1.00  0.00    -0.297 N 
HETATM   32  C   UNL     1      14.423   8.920   5.218  1.00  0.00     0.188 A 
HETATM   33  N   UNL     1      13.750   8.562   4.150  1.00  0.00    -0.346 N 
HETATM   34  C   UNL     1      13.133   7.377   4.533  1.00  0.00     0.122 A 
ATOM     35  HN  UNL     1      13.693   9.040   3.250  1.00  0.00     0.167 HD
HETATM   36  C   UNL     1      12.298   6.472   3.848  1.00  0.00     0.131 A 
HETATM   37  C   UNL     1      13.453   7.060   5.843  1.00  0.00     0.142 A 
HETATM   38  N   UNL     1      11.896   5.369   4.514  1.00  0.00    -0.337 N 
HETATM   39  C   UNL     1      12.272   5.205   5.783  1.00  0.00     0.183 A 
ATOM     40  HN  UNL     1      11.313   4.671   4.053  1.00  0.00     0.168 HD
HETATM   41  N   UNL     1      13.043   5.984   6.533  1.00  0.00    -0.336 N 
ATOM     42  HN  UNL     1      13.291   5.791   7.503  1.00  0.00     0.168 HD
BRANCH  36  43
HETATM   43  N   UNL     1      11.861   6.655   2.591  1.00  0.00    -0.383 N 
ATOM     44  HN2 UNL     1      12.100   6.045   1.809  1.00  0.00     0.157 HD
ATOM     45  HN1 UNL     1      11.270   7.462   2.396  1.00  0.00     0.157 HD
ENDBRANCH  36  43
ENDBRANCH  25  31
ENDBRANCH  21  22
ENDBRANCH  16  21
ENDBRANCH  15  16
ENDBRANCH  14  15
ENDBRANCH   1  13
BRANCH   2  46
HETATM   46  C   UNL     1      19.258   9.068  13.992  1.00  0.00     0.263 C 
HETATM   47  C   UNL     1      18.246   9.105  15.133  1.00  0.00     0.198 C 
HETATM   48  C   UNL     1      18.082   7.607  15.332  1.00  0.00     0.181 C 
HETATM   49  C   UNL     1      17.998   7.119  13.888  1.00  0.00     0.173 C 
HETATM   50  O   UNL     1      18.790   8.063  13.113  1.00  0.00    -0.354 OA
BRANCH  47  51
HETATM   51  O   UNL     1      18.738   9.760  16.293  1.00  0.00    -0.388 OA
ATOM     52  HO  UNL     1      18.147  10.426  16.624  1.00  0.00     0.210 HD
ENDBRANCH  47  51
BRANCH  48  53
HETATM   53  O   UNL     1      19.161   7.035  16.069  1.00  0.00    -0.390 OA
ATOM     54  HO  UNL     1      19.294   6.118  15.863  1.00  0.00     0.210 HD
ENDBRANCH  48  53
BRANCH  49  55
HETATM   55  C   UNL     1      16.574   7.127  13.364  1.00  0.00     0.159 C 
BRANCH  55  56
HETATM   56  N   UNL     1      16.253   6.063  12.438  1.00  0.00    -0.341 N 
HETATM   57  C   UNL     1      16.530   6.156  11.123  1.00  0.00     0.316 C 
HETATM   58  O   UNL     1      17.018   7.169  10.624  1.00  0.00    -0.247 OA
HETATM   59  N   UNL     1      16.192   5.064  10.393  1.00  0.00    -0.342 N 
ATOM     60  HN  UNL     1      15.640   4.331  10.838  1.00  0.00     0.164 HD
ATOM     61  HN  UNL     1      15.803   5.218  12.790  1.00  0.00     0.164 HD
BRANCH  59  62
HETATM   62  C   UNL     1      16.584   4.896   9.001  1.00  0.00     0.151 C 
BRANCH  62  63
HETATM   63  C   UNL     1      18.033   4.474   8.920  1.00  0.00     0.249 C 
BRANCH  63  64
HETATM   64  N   UNL     1      18.889   5.582   8.464  1.00  0.00    -0.078 N 
ATOM     65  HN3 UNL     1      19.588   5.264   7.793  1.00  0.00     0.274 HD
ATOM     66  HN2 UNL     1      18.377   6.228   7.864  1.00  0.00     0.274 HD
ATOM     67  HN1 UNL     1      19.320   6.066   9.252  1.00  0.00     0.274 HD
ENDBRANCH  63  64
ENDBRANCH  62  63
ENDBRANCH  59  62
ENDBRANCH  55  56
ENDBRANCH  49  55
ENDBRANCH   2  46
BRANCH   6  68
HETATM   68  N   UNL     1      21.519  13.908  11.225  1.00  0.00    -0.383 N 
ATOM     69  HN2 UNL     1      22.327  14.162  10.657  1.00  0.00     0.157 HD
ATOM     70  HN1 UNL     1      20.690  14.498  11.156  1.00  0.00     0.157 HD
ENDBRANCH   6  68
TORSDOF 20
ENDMDL
MODEL 14
REMARK VINA RESULT:    -8.160      2.886      4.896
REMARK INTER + INTRA:         -18.720
REMARK INTER:                 -14.972
REMARK INTRA:                  -3.748
REMARK UNBOUND:                -2.690
REMARK  20 active torsions:
REMARK  status: ('A' for Active; 'I' for Inactive)
REMARK       I    between atoms: N_1  and  C_20 
REMARK    1  A    between atoms: N_1  and  C_9 
REMARK    2  A    between atoms: C_3  and  O_65 
REMARK    3  A    between atoms: C_4  and  C_7 
REMARK       I    between atoms: N_5  and  C_20 
REMARK    4  A    between atoms: N_5  and  C_17 
REMARK    5  A    between atoms: C_9  and  C_26 
REMARK    6  A    between atoms: O_10  and  C_34 
REMARK    7  A    between atoms: C_12  and  N_14 
REMARK    8  A    between atoms: C_13  and  O_18 
REMARK    9  A    between atoms: C_15  and  C_17 
REMARK   10  A    between atoms: N_21  and  C_29 
REMARK   11  A    between atoms: N_21  and  C_40 
REMARK   12  A    between atoms: N_21  and  C_30 
REMARK   13  A    between atoms: N_22  and  C_26 
REMARK   14  A    between atoms: C_28  and  C_29 
REMARK   15  A    between atoms: C_30  and  C_31 
REMARK   16  A    between atoms: C_32  and  N_55 
REMARK   17  A    between atoms: C_33  and  O_67 
REMARK   18  A    between atoms: C_39  and  N_62 
REMARK   19  A    between atoms: C_40  and  C_41 
REMARK   20  A    between atoms: C_45  and  N_52 
ROOT
HETATM    1  C   UNL     1      22.106   9.636  13.375  1.00  0.00     0.168 A 
HETATM    2  N   UNL     1      20.756   9.781  13.665  1.00  0.00    -0.279 N 
HETATM    3  C   UNL     1      21.522  11.514  12.552  1.00  0.00     0.123 A 
HETATM    4  C   UNL     1      20.381  10.988  13.130  1.00  0.00     0.143 A 
HETATM    5  C   UNL     1      19.183  12.748  12.574  1.00  0.00     0.183 A 
HETATM    6  C   UNL     1      21.410  12.785  11.961  1.00  0.00     0.131 A 
HETATM    7  N   UNL     1      22.600  10.650  12.693  1.00  0.00    -0.329 N 
ATOM      8  HN  UNL     1      23.552  10.773  12.349  1.00  0.00     0.168 HD
HETATM    9  N   UNL     1      19.171  11.556  13.171  1.00  0.00    -0.336 N 
ATOM     10  HN  UNL     1      18.349  11.134  13.602  1.00  0.00     0.168 HD
HETATM   11  N   UNL     1      20.198  13.374  11.979  1.00  0.00    -0.337 N 
ATOM     12  HN  UNL     1      20.059  14.286  11.543  1.00  0.00     0.168 HD
ENDROOT
BRANCH   1  13
HETATM   13  C   UNL     1      22.860   8.518  13.811  1.00  0.00    -0.028 C 
HETATM   14  C   UNL     1      23.387   7.580  14.324  1.00  0.00    -0.068 C 
BRANCH  14  15
HETATM   15  C   UNL     1      24.139   6.406  14.802  1.00  0.00     0.367 C 
BRANCH  15  16
HETATM   16  N   UNL     1      23.303   5.347  15.378  1.00  0.00     0.111 N 
BRANCH  16  17
HETATM   17  C   UNL     1      22.493   4.674  14.362  1.00  0.00     0.386 C 
BRANCH  17  18
HETATM   18  C   UNL     1      21.055   5.119  14.212  1.00  0.00     0.202 C 
HETATM   19  O   UNL     1      20.335   5.118  15.308  1.00  0.00    -0.647 OA
HETATM   20  O   UNL     1      20.599   5.445  13.130  1.00  0.00    -0.647 OA
ENDBRANCH  17  18
ENDBRANCH  16  17
BRANCH  16  21
HETATM   21  C   UNL     1      24.014   4.410  16.264  1.00  0.00     0.308 C 
BRANCH  21  22
HETATM   22  C   UNL     1      23.740   4.777  17.707  1.00  0.00     0.184 C 
HETATM   23  C   UNL     1      22.349   5.359  17.933  1.00  0.00     0.182 C 
HETATM   24  C   UNL     1      22.530   6.129  19.251  1.00  0.00     0.198 C 
HETATM   25  C   UNL     1      24.036   6.415  19.276  1.00  0.00     0.262 C 
HETATM   26  O   UNL     1      24.619   5.847  18.107  1.00  0.00    -0.354 OA
BRANCH  23  27
HETATM   27  O   UNL     1      21.405   4.322  18.108  1.00  0.00    -0.390 OA
ATOM     28  HO  UNL     1      21.522   3.662  17.434  1.00  0.00     0.210 HD
ENDBRANCH  23  27
BRANCH  24  29
HETATM   29  O   UNL     1      22.218   5.331  20.392  1.00  0.00    -0.388 OA
ATOM     30  HO  UNL     1      22.964   5.362  20.980  1.00  0.00     0.210 HD
ENDBRANCH  24  29
BRANCH  25  31
HETATM   31  N   UNL     1      24.388   7.811  19.359  1.00  0.00    -0.297 N 
HETATM   32  C   UNL     1      23.953   8.862  18.589  1.00  0.00     0.188 A 
HETATM   33  N   UNL     1      24.384  10.033  18.994  1.00  0.00    -0.346 N 
HETATM   34  C   UNL     1      25.162   9.730  20.106  1.00  0.00     0.122 A 
ATOM     35  HN  UNL     1      24.194  10.950  18.589  1.00  0.00     0.167 HD
HETATM   36  C   UNL     1      25.880  10.532  21.014  1.00  0.00     0.131 A 
HETATM   37  C   UNL     1      25.180   8.364  20.332  1.00  0.00     0.142 A 
HETATM   38  N   UNL     1      26.509   9.910  22.033  1.00  0.00    -0.337 N 
HETATM   39  C   UNL     1      26.452   8.580  22.114  1.00  0.00     0.183 A 
ATOM     40  HN  UNL     1      27.020  10.449  22.732  1.00  0.00     0.168 HD
HETATM   41  N   UNL     1      25.819   7.721  21.322  1.00  0.00    -0.336 N 
ATOM     42  HN  UNL     1      25.819   6.709  21.449  1.00  0.00     0.168 HD
BRANCH  36  43
HETATM   43  N   UNL     1      25.997  11.866  20.911  1.00  0.00    -0.383 N 
ATOM     44  HN2 UNL     1      26.419  12.343  20.114  1.00  0.00     0.157 HD
ATOM     45  HN1 UNL     1      25.663  12.444  21.682  1.00  0.00     0.157 HD
ENDBRANCH  36  43
ENDBRANCH  25  31
ENDBRANCH  21  22
ENDBRANCH  16  21
ENDBRANCH  15  16
ENDBRANCH  14  15
ENDBRANCH   1  13
BRANCH   2  46
HETATM   46  C   UNL     1      19.853   8.875  14.351  1.00  0.00     0.263 C 
HETATM   47  C   UNL     1      19.159   9.415  15.598  1.00  0.00     0.198 C 
HETATM   48  C   UNL     1      18.104   8.333  15.750  1.00  0.00     0.181 C 
HETATM   49  C   UNL     1      17.645   8.155  14.305  1.00  0.00     0.173 C 
HETATM   50  O   UNL     1      18.806   8.476  13.487  1.00  0.00    -0.354 OA
BRANCH  47  51
HETATM   51  O   UNL     1      20.022   9.499  16.722  1.00  0.00    -0.388 OA
ATOM     52  HO  UNL     1      19.555   9.562  17.547  1.00  0.00     0.210 HD
ENDBRANCH  47  51
BRANCH  48  53
HETATM   53  O   UNL     1      18.626   7.142  16.337  1.00  0.00    -0.390 OA
ATOM     54  HO  UNL     1      19.557   7.040  16.182  1.00  0.00     0.210 HD
ENDBRANCH  48  53
BRANCH  49  55
HETATM   55  C   UNL     1      16.514   9.099  13.944  1.00  0.00     0.159 C 
BRANCH  55  56
HETATM   56  N   UNL     1      15.897   8.857  12.657  1.00  0.00    -0.341 N 
HETATM   57  C   UNL     1      15.970   9.752  11.653  1.00  0.00     0.316 C 
HETATM   58  O   UNL     1      16.513  10.848  11.788  1.00  0.00    -0.247 OA
HETATM   59  N   UNL     1      15.365   9.366  10.503  1.00  0.00    -0.342 N 
ATOM     60  HN  UNL     1      14.791   8.523  10.512  1.00  0.00     0.164 HD
ATOM     61  HN  UNL     1      15.392   7.984  12.506  1.00  0.00     0.164 HD
BRANCH  59  62
HETATM   62  C   UNL     1      15.499  10.106   9.256  1.00  0.00     0.151 C 
BRANCH  62  63
HETATM   63  C   UNL     1      15.272   9.182   8.082  1.00  0.00     0.249 C 
BRANCH  63  64
HETATM   64  N   UNL     1      14.269   9.732   7.154  1.00  0.00    -0.078 N 
ATOM     65  HN3 UNL     1      13.449   9.128   7.088  1.00  0.00     0.274 HD
ATOM     66  HN2 UNL     1      13.821  10.564   7.538  1.00  0.00     0.274 HD
ATOM     67  HN1 UNL     1      14.673   9.914   6.236  1.00  0.00     0.274 HD
ENDBRANCH  63  64
ENDBRANCH  62  63
ENDBRANCH  59  62
ENDBRANCH  55  56
ENDBRANCH  49  55
ENDBRANCH   2  46
BRANCH   6  68
HETATM   68  N   UNL     1      22.441  13.460  11.439  1.00  0.00    -0.383 N 
ATOM     69  HN2 UNL     1      22.266  14.381  11.037  1.00  0.00     0.157 HD
ATOM     70  HN1 UNL     1      23.406  13.129  11.457  1.00  0.00     0.157 HD
ENDBRANCH   6  68
TORSDOF 20
ENDMDL
MODEL 15
REMARK VINA RESULT:    -8.083      5.997     13.073
REMARK INTER + INTRA:         -18.569
REMARK INTER:                 -15.835
REMARK INTRA:                  -2.734
REMARK UNBOUND:                -2.690
REMARK  20 active torsions:
REMARK  status: ('A' for Active; 'I' for Inactive)
REMARK       I    between atoms: N_1  and  C_20 
REMARK    1  A    between atoms: N_1  and  C_9 
REMARK    2  A    between atoms: C_3  and  O_65 
REMARK    3  A    between atoms: C_4  and  C_7 
REMARK       I    between atoms: N_5  and  C_20 
REMARK    4  A    between atoms: N_5  and  C_17 
REMARK    5  A    between atoms: C_9  and  C_26 
REMARK    6  A    between atoms: O_10  and  C_34 
REMARK    7  A    between atoms: C_12  and  N_14 
REMARK    8  A    between atoms: C_13  and  O_18 
REMARK    9  A    between atoms: C_15  and  C_17 
REMARK   10  A    between atoms: N_21  and  C_29 
REMARK   11  A    between atoms: N_21  and  C_40 
REMARK   12  A    between atoms: N_21  and  C_30 
REMARK   13  A    between atoms: N_22  and  C_26 
REMARK   14  A    between atoms: C_28  and  C_29 
REMARK   15  A    between atoms: C_30  and  C_31 
REMARK   16  A    between atoms: C_32  and  N_55 
REMARK   17  A    between atoms: C_33  and  O_67 
REMARK   18  A    between atoms: C_39  and  N_62 
REMARK   19  A    between atoms: C_40  and  C_41 
REMARK   20  A    between atoms: C_45  and  N_52 
ROOT
HETATM    1  C   UNL     1      18.784  11.065  13.009  1.00  0.00     0.168 A 
HETATM    2  N   UNL     1      19.636  10.165  13.634  1.00  0.00    -0.279 N 
HETATM    3  C   UNL     1      20.764  11.736  12.590  1.00  0.00     0.123 A 
HETATM    4  C   UNL     1      20.910  10.600  13.368  1.00  0.00     0.143 A 
HETATM    5  C   UNL     1      23.105  10.720  13.286  1.00  0.00     0.183 A 
HETATM    6  C   UNL     1      21.943  12.359  12.145  1.00  0.00     0.131 A 
HETATM    7  N   UNL     1      19.424  12.033  12.383  1.00  0.00    -0.329 N 
ATOM      8  HN  UNL     1      19.027  12.819  11.867  1.00  0.00     0.168 HD
HETATM    9  N   UNL     1      22.059  10.041  13.757  1.00  0.00    -0.336 N 
ATOM     10  HN  UNL     1      22.128   9.205  14.337  1.00  0.00     0.168 HD
HETATM   11  N   UNL     1      23.116  11.821  12.533  1.00  0.00    -0.337 N 
ATOM     12  HN  UNL     1      23.999  12.249  12.256  1.00  0.00     0.168 HD
ENDROOT
BRANCH   1  13
HETATM   13  C   UNL     1      17.374  10.915  13.027  1.00  0.00    -0.028 C 
HETATM   14  C   UNL     1      16.189  10.914  12.908  1.00  0.00    -0.068 C 
BRANCH  14  15
HETATM   15  C   UNL     1      14.722  10.773  12.886  1.00  0.00     0.367 C 
BRANCH  15  16
HETATM   16  N   UNL     1      14.218   9.860  11.854  1.00  0.00     0.111 N 
BRANCH  16  17
HETATM   17  C   UNL     1      12.867   9.386  12.152  1.00  0.00     0.386 C 
BRANCH  17  18
HETATM   18  C   UNL     1      12.738   8.088  12.919  1.00  0.00     0.202 C 
HETATM   19  O   UNL     1      12.486   7.019  12.202  1.00  0.00    -0.647 OA
HETATM   20  O   UNL     1      12.852   8.050  14.132  1.00  0.00    -0.647 OA
ENDBRANCH  17  18
ENDBRANCH  16  17
BRANCH  16  21
HETATM   21  C   UNL     1      14.368  10.344  10.472  1.00  0.00     0.308 C 
BRANCH  21  22
HETATM   22  C   UNL     1      15.118   9.312   9.656  1.00  0.00     0.184 C 
HETATM   23  C   UNL     1      16.231   9.904   8.799  1.00  0.00     0.182 C 
HETATM   24  C   UNL     1      16.421   8.824   7.722  1.00  0.00     0.198 C 
HETATM   25  C   UNL     1      15.063   8.111   7.710  1.00  0.00     0.262 C 
HETATM   26  O   UNL     1      14.228   8.723   8.688  1.00  0.00    -0.354 OA
BRANCH  23  27
HETATM   27  O   UNL     1      17.416  10.040   9.558  1.00  0.00    -0.390 OA
ATOM     28  HO  UNL     1      17.572  10.957   9.751  1.00  0.00     0.210 HD
ENDBRANCH  23  27
BRANCH  24  29
HETATM   29  O   UNL     1      17.414   7.866   8.084  1.00  0.00    -0.388 OA
ATOM     30  HO  UNL     1      17.675   8.043   8.981  1.00  0.00     0.210 HD
ENDBRANCH  24  29
BRANCH  25  31
HETATM   31  N   UNL     1      14.389   8.109   6.435  1.00  0.00    -0.297 N 
HETATM   32  C   UNL     1      14.387   9.071   5.455  1.00  0.00     0.188 A 
HETATM   33  N   UNL     1      13.757   8.714   4.360  1.00  0.00    -0.346 N 
HETATM   34  C   UNL     1      13.309   7.429   4.643  1.00  0.00     0.122 A 
ATOM     35  HN  UNL     1      13.625   9.252   3.503  1.00  0.00     0.167 HD
HETATM   36  C   UNL     1      12.597   6.478   3.886  1.00  0.00     0.131 A 
HETATM   37  C   UNL     1      13.684   7.052   5.922  1.00  0.00     0.142 A 
HETATM   38  N   UNL     1      12.355   5.280   4.457  1.00  0.00    -0.337 N 
HETATM   39  C   UNL     1      12.764   5.064   5.708  1.00  0.00     0.183 A 
ATOM     40  HN  UNL     1      11.867   4.549   3.940  1.00  0.00     0.168 HD
HETATM   41  N   UNL     1      13.431   5.877   6.521  1.00  0.00    -0.336 N 
ATOM     42  HN  UNL     1      13.713   5.640   7.472  1.00  0.00     0.168 HD
BRANCH  36  43
HETATM   43  N   UNL     1      12.126   6.703   2.648  1.00  0.00    -0.383 N 
ATOM     44  HN2 UNL     1      11.397   7.381   2.428  1.00  0.00     0.157 HD
ATOM     45  HN1 UNL     1      12.504   6.151   1.878  1.00  0.00     0.157 HD
ENDBRANCH  36  43
ENDBRANCH  25  31
ENDBRANCH  21  22
ENDBRANCH  16  21
ENDBRANCH  15  16
ENDBRANCH  14  15
ENDBRANCH   1  13
BRANCH   2  46
HETATM   46  C   UNL     1      19.322   9.004  14.448  1.00  0.00     0.263 C 
HETATM   47  C   UNL     1      18.862   9.275  15.876  1.00  0.00     0.198 C 
HETATM   48  C   UNL     1      18.323   7.892  16.201  1.00  0.00     0.181 C 
HETATM   49  C   UNL     1      17.570   7.554  14.917  1.00  0.00     0.173 C 
HETATM   50  O   UNL     1      18.277   8.256  13.856  1.00  0.00    -0.354 OA
BRANCH  47  51
HETATM   51  O   UNL     1      19.921   9.665  16.738  1.00  0.00    -0.388 OA
ATOM     52  HO  UNL     1      19.954   9.160  17.541  1.00  0.00     0.210 HD
ENDBRANCH  47  51
BRANCH  48  53
HETATM   53  O   UNL     1      19.359   6.965  16.520  1.00  0.00    -0.390 OA
ATOM     54  HO  UNL     1      20.217   7.372  16.536  1.00  0.00     0.210 HD
ENDBRANCH  48  53
BRANCH  49  55
HETATM   55  C   UNL     1      16.133   8.038  14.953  1.00  0.00     0.159 C 
BRANCH  55  56
HETATM   56  N   UNL     1      15.432   7.793  16.195  1.00  0.00    -0.341 N 
HETATM   57  C   UNL     1      15.064   8.796  17.015  1.00  0.00     0.316 C 
HETATM   58  O   UNL     1      15.352   9.970  16.787  1.00  0.00    -0.247 OA
HETATM   59  N   UNL     1      14.391   8.404  18.125  1.00  0.00    -0.342 N 
ATOM     60  HN  UNL     1      14.333   7.407  18.335  1.00  0.00     0.164 HD
ATOM     61  HN  UNL     1      15.210   6.832  16.456  1.00  0.00     0.164 HD
BRANCH  59  62
HETATM   62  C   UNL     1      13.746   9.346  19.028  1.00  0.00     0.151 C 
BRANCH  62  63
HETATM   63  C   UNL     1      14.139   9.044  20.456  1.00  0.00     0.249 C 
BRANCH  63  64
HETATM   64  N   UNL     1      15.514   8.523  20.534  1.00  0.00    -0.078 N 
ATOM     65  HN3 UNL     1      15.685   7.810  19.824  1.00  0.00     0.274 HD
ATOM     66  HN2 UNL     1      16.195   9.217  20.227  1.00  0.00     0.274 HD
ATOM     67  HN1 UNL     1      15.727   8.177  21.469  1.00  0.00     0.274 HD
ENDBRANCH  63  64
ENDBRANCH  62  63
ENDBRANCH  59  62
ENDBRANCH  55  56
ENDBRANCH  49  55
ENDBRANCH   2  46
BRANCH   6  68
HETATM   68  N   UNL     1      21.966  13.411  11.318  1.00  0.00    -0.383 N 
ATOM     69  HN2 UNL     1      21.728  13.264  10.337  1.00  0.00     0.157 HD
ATOM     70  HN1 UNL     1      22.165  14.366  11.617  1.00  0.00     0.157 HD
ENDBRANCH   6  68
TORSDOF 20
ENDMDL
MODEL 16
REMARK VINA RESULT:    -8.031      3.055     12.992
REMARK INTER + INTRA:         -18.466
REMARK INTER:                 -15.306
REMARK INTRA:                  -3.161
REMARK UNBOUND:                -2.690
REMARK  20 active torsions:
REMARK  status: ('A' for Active; 'I' for Inactive)
REMARK       I    between atoms: N_1  and  C_20 
REMARK    1  A    between atoms: N_1  and  C_9 
REMARK    2  A    between atoms: C_3  and  O_65 
REMARK    3  A    between atoms: C_4  and  C_7 
REMARK       I    between atoms: N_5  and  C_20 
REMARK    4  A    between atoms: N_5  and  C_17 
REMARK    5  A    between atoms: C_9  and  C_26 
REMARK    6  A    between atoms: O_10  and  C_34 
REMARK    7  A    between atoms: C_12  and  N_14 
REMARK    8  A    between atoms: C_13  and  O_18 
REMARK    9  A    between atoms: C_15  and  C_17 
REMARK   10  A    between atoms: N_21  and  C_29 
REMARK   11  A    between atoms: N_21  and  C_40 
REMARK   12  A    between atoms: N_21  and  C_30 
REMARK   13  A    between atoms: N_22  and  C_26 
REMARK   14  A    between atoms: C_28  and  C_29 
REMARK   15  A    between atoms: C_30  and  C_31 
REMARK   16  A    between atoms: C_32  and  N_55 
REMARK   17  A    between atoms: C_33  and  O_67 
REMARK   18  A    between atoms: C_39  and  N_62 
REMARK   19  A    between atoms: C_40  and  C_41 
REMARK   20  A    between atoms: C_45  and  N_52 
ROOT
HETATM    1  C   UNL     1      19.489  10.218  13.671  1.00  0.00     0.168 A 
HETATM    2  N   UNL     1      20.516   9.602  14.374  1.00  0.00    -0.279 N 
HETATM    3  C   UNL     1      21.289  11.179  13.054  1.00  0.00     0.123 A 
HETATM    4  C   UNL     1      21.673  10.225  13.980  1.00  0.00     0.143 A 
HETATM    5  C   UNL     1      23.800  10.744  13.764  1.00  0.00     0.183 A 
HETATM    6  C   UNL     1      22.313  11.938  12.460  1.00  0.00     0.131 A 
HETATM    7  N   UNL     1      19.912  11.182  12.878  1.00  0.00    -0.329 N 
ATOM      8  HN  UNL     1      19.357  11.789  12.274  1.00  0.00     0.168 HD
HETATM    9  N   UNL     1      22.918   9.960  14.385  1.00  0.00    -0.336 N 
ATOM     10  HN  UNL     1      23.163   9.251  15.076  1.00  0.00     0.168 HD
HETATM   11  N   UNL     1      23.577  11.698  12.860  1.00  0.00    -0.337 N 
ATOM     12  HN  UNL     1      24.352  12.238  12.476  1.00  0.00     0.168 HD
ENDROOT
BRANCH   1  13
HETATM   13  C   UNL     1      18.137   9.808  13.786  1.00  0.00    -0.028 C 
HETATM   14  C   UNL     1      17.003   9.548  14.044  1.00  0.00    -0.068 C 
BRANCH  14  15
HETATM   15  C   UNL     1      15.590   9.154  14.191  1.00  0.00     0.367 C 
BRANCH  15  16
HETATM   16  N   UNL     1      15.280   7.816  13.677  1.00  0.00     0.111 N 
BRANCH  16  17
HETATM   17  C   UNL     1      15.259   6.810  14.740  1.00  0.00     0.386 C 
BRANCH  17  18
HETATM   18  C   UNL     1      16.587   6.405  15.341  1.00  0.00     0.202 C 
HETATM   19  O   UNL     1      16.677   6.488  16.647  1.00  0.00    -0.647 OA
HETATM   20  O   UNL     1      17.516   6.035  14.644  1.00  0.00    -0.647 OA
ENDBRANCH  17  18
ENDBRANCH  16  17
BRANCH  16  21
HETATM   21  C   UNL     1      14.103   7.748  12.796  1.00  0.00     0.308 C 
BRANCH  21  22
HETATM   22  C   UNL     1      14.361   8.568  11.549  1.00  0.00     0.184 C 
HETATM   23  C   UNL     1      13.230   9.533  11.211  1.00  0.00     0.182 C 
HETATM   24  C   UNL     1      13.458   9.788   9.713  1.00  0.00     0.198 C 
HETATM   25  C   UNL     1      14.225   8.537   9.267  1.00  0.00     0.262 C 
HETATM   26  O   UNL     1      14.411   7.698  10.402  1.00  0.00    -0.354 OA
BRANCH  23  27
HETATM   27  O   UNL     1      13.382  10.740  11.932  1.00  0.00    -0.390 OA
ATOM     28  HO  UNL     1      13.829  10.570  12.754  1.00  0.00     0.210 HD
ENDBRANCH  23  27
BRANCH  24  29
HETATM   29  O   UNL     1      14.294  10.920   9.476  1.00  0.00    -0.388 OA
ATOM     30  HO  UNL     1      15.089  10.805   9.984  1.00  0.00     0.210 HD
ENDBRANCH  24  29
BRANCH  25  31
HETATM   31  N   UNL     1      13.595   7.784   8.210  1.00  0.00    -0.297 N 
HETATM   32  C   UNL     1      12.701   6.744   8.300  1.00  0.00     0.188 A 
HETATM   33  N   UNL     1      12.231   6.344   7.142  1.00  0.00    -0.346 N 
HETATM   34  C   UNL     1      12.864   7.177   6.226  1.00  0.00     0.122 A 
ATOM     35  HN  UNL     1      11.560   5.599   6.957  1.00  0.00     0.167 HD
HETATM   36  C   UNL     1      12.778   7.292   4.824  1.00  0.00     0.131 A 
HETATM   37  C   UNL     1      13.714   8.058   6.872  1.00  0.00     0.142 A 
HETATM   38  N   UNL     1      13.512   8.256   4.232  1.00  0.00    -0.337 N 
HETATM   39  C   UNL     1      14.302   9.024   4.984  1.00  0.00     0.183 A 
ATOM     40  HN  UNL     1      13.463   8.397   3.223  1.00  0.00     0.168 HD
HETATM   41  N   UNL     1      14.473   9.007   6.302  1.00  0.00    -0.336 N 
ATOM     42  HN  UNL     1      15.099   9.631   6.812  1.00  0.00     0.168 HD
BRANCH  36  43
HETATM   43  N   UNL     1      12.034   6.487   4.048  1.00  0.00    -0.383 N 
ATOM     44  HN2 UNL     1      11.144   6.758   3.631  1.00  0.00     0.157 HD
ATOM     45  HN1 UNL     1      12.365   5.537   3.876  1.00  0.00     0.157 HD
ENDBRANCH  36  43
ENDBRANCH  25  31
ENDBRANCH  21  22
ENDBRANCH  16  21
ENDBRANCH  15  16
ENDBRANCH  14  15
ENDBRANCH   1  13
BRANCH   2  46
HETATM   46  C   UNL     1      20.454   8.542  15.364  1.00  0.00     0.263 C 
HETATM   47  C   UNL     1      21.096   7.212  14.982  1.00  0.00     0.198 C 
HETATM   48  C   UNL     1      21.125   6.575  16.362  1.00  0.00     0.181 C 
HETATM   49  C   UNL     1      21.597   7.745  17.222  1.00  0.00     0.173 C 
HETATM   50  O   UNL     1      21.107   8.941  16.554  1.00  0.00    -0.354 OA
BRANCH  47  51
HETATM   51  O   UNL     1      20.323   6.467  14.053  1.00  0.00    -0.388 OA
ATOM     52  HO  UNL     1      19.479   6.863  13.868  1.00  0.00     0.210 HD
ENDBRANCH  47  51
BRANCH  48  53
HETATM   53  O   UNL     1      19.853   6.056  16.748  1.00  0.00    -0.390 OA
ATOM     54  HO  UNL     1      19.923   5.390  17.421  1.00  0.00     0.210 HD
ENDBRANCH  48  53
BRANCH  49  55
HETATM   55  C   UNL     1      23.110   7.815  17.309  1.00  0.00     0.159 C 
BRANCH  55  56
HETATM   56  N   UNL     1      23.634   8.971  18.004  1.00  0.00    -0.341 N 
HETATM   57  C   UNL     1      24.304   8.859  19.168  1.00  0.00     0.316 C 
HETATM   58  O   UNL     1      24.458   7.778  19.735  1.00  0.00    -0.247 OA
HETATM   59  N   UNL     1      24.754  10.031  19.678  1.00  0.00    -0.342 N 
ATOM     60  HN  UNL     1      24.447  10.903  19.246  1.00  0.00     0.164 HD
ATOM     61  HN  UNL     1      23.492   9.897  17.602  1.00  0.00     0.164 HD
BRANCH  59  62
HETATM   62  C   UNL     1      25.658  10.098  20.818  1.00  0.00     0.151 C 
BRANCH  62  63
HETATM   63  C   UNL     1      25.974  11.540  21.143  1.00  0.00     0.249 C 
BRANCH  63  64
HETATM   64  N   UNL     1      25.348  12.456  20.175  1.00  0.00    -0.078 N 
ATOM     65  HN3 UNL     1      25.679  13.413  20.297  1.00  0.00     0.274 HD
ATOM     66  HN2 UNL     1      25.691  12.291  19.229  1.00  0.00     0.274 HD
ATOM     67  HN1 UNL     1      24.331  12.404  20.218  1.00  0.00     0.274 HD
ENDBRANCH  63  64
ENDBRANCH  62  63
ENDBRANCH  59  62
ENDBRANCH  55  56
ENDBRANCH  49  55
ENDBRANCH   2  46
BRANCH   6  68
HETATM   68  N   UNL     1      22.110  12.836  11.489  1.00  0.00    -0.383 N 
ATOM     69  HN2 UNL     1      22.913  13.164  10.954  1.00  0.00     0.157 HD
ATOM     70  HN1 UNL     1      21.189  13.183  11.218  1.00  0.00     0.157 HD
ENDBRANCH   6  68
TORSDOF 20
ENDMDL
MODEL 17
REMARK VINA RESULT:    -7.938      2.862      6.572
REMARK INTER + INTRA:         -18.285
REMARK INTER:                 -16.107
REMARK INTRA:                  -2.178
REMARK UNBOUND:                -2.690
REMARK  20 active torsions:
REMARK  status: ('A' for Active; 'I' for Inactive)
REMARK       I    between atoms: N_1  and  C_20 
REMARK    1  A    between atoms: N_1  and  C_9 
REMARK    2  A    between atoms: C_3  and  O_65 
REMARK    3  A    between atoms: C_4  and  C_7 
REMARK       I    between atoms: N_5  and  C_20 
REMARK    4  A    between atoms: N_5  and  C_17 
REMARK    5  A    between atoms: C_9  and  C_26 
REMARK    6  A    between atoms: O_10  and  C_34 
REMARK    7  A    between atoms: C_12  and  N_14 
REMARK    8  A    between atoms: C_13  and  O_18 
REMARK    9  A    between atoms: C_15  and  C_17 
REMARK   10  A    between atoms: N_21  and  C_29 
REMARK   11  A    between atoms: N_21  and  C_40 
REMARK   12  A    between atoms: N_21  and  C_30 
REMARK   13  A    between atoms: N_22  and  C_26 
REMARK   14  A    between atoms: C_28  and  C_29 
REMARK   15  A    between atoms: C_30  and  C_31 
REMARK   16  A    between atoms: C_32  and  N_55 
REMARK   17  A    between atoms: C_33  and  O_67 
REMARK   18  A    between atoms: C_39  and  N_62 
REMARK   19  A    between atoms: C_40  and  C_41 
REMARK   20  A    between atoms: C_45  and  N_52 
ROOT
HETATM    1  C   UNL     1      17.437   9.419  13.350  1.00  0.00     0.168 A 
HETATM    2  N   UNL     1      16.537   9.558  12.302  1.00  0.00    -0.279 N 
HETATM    3  C   UNL     1      15.493   9.303  14.218  1.00  0.00     0.123 A 
HETATM    4  C   UNL     1      15.287   9.488  12.862  1.00  0.00     0.143 A 
HETATM    5  C   UNL     1      13.100   9.423  13.096  1.00  0.00     0.183 A 
HETATM    6  C   UNL     1      14.348   9.157  15.022  1.00  0.00     0.131 A 
HETATM    7  N   UNL     1      16.847   9.278  14.521  1.00  0.00    -0.329 N 
ATOM      8  HN  UNL     1      17.284   9.175  15.437  1.00  0.00     0.168 HD
HETATM    9  N   UNL     1      14.109   9.563  12.235  1.00  0.00    -0.336 N 
ATOM     10  HN  UNL     1      13.996   9.707  11.232  1.00  0.00     0.168 HD
HETATM   11  N   UNL     1      13.147   9.240  14.416  1.00  0.00    -0.337 N 
ATOM     12  HN  UNL     1      12.287   9.165  14.958  1.00  0.00     0.168 HD
ENDROOT
BRANCH   1  13
HETATM   13  C   UNL     1      18.840   9.397  13.151  1.00  0.00    -0.028 C 
HETATM   14  C   UNL     1      19.984   9.257  12.852  1.00  0.00    -0.068 C 
BRANCH  14  15
HETATM   15  C   UNL     1      21.437   9.220  12.605  1.00  0.00     0.367 C 
BRANCH  15  16
HETATM   16  N   UNL     1      22.048   7.899  12.788  1.00  0.00     0.111 N 
BRANCH  16  17
HETATM   17  C   UNL     1      22.311   7.234  11.512  1.00  0.00     0.386 C 
BRANCH  17  18
HETATM   18  C   UNL     1      21.345   6.154  11.077  1.00  0.00     0.202 C 
HETATM   19  O   UNL     1      21.862   5.160  10.395  1.00  0.00    -0.647 OA
HETATM   20  O   UNL     1      20.156   6.219  11.340  1.00  0.00    -0.647 OA
ENDBRANCH  17  18
ENDBRANCH  16  17
BRANCH  16  21
HETATM   21  C   UNL     1      23.202   7.871  13.702  1.00  0.00     0.308 C 
BRANCH  21  22
HETATM   22  C   UNL     1      22.844   8.591  14.986  1.00  0.00     0.184 C 
HETATM   23  C   UNL     1      23.744   9.784  15.286  1.00  0.00     0.182 C 
HETATM   24  C   UNL     1      23.560   9.956  16.802  1.00  0.00     0.198 C 
HETATM   25  C   UNL     1      23.128   8.555  17.254  1.00  0.00     0.262 C 
HETATM   26  O   UNL     1      23.066   7.714  16.107  1.00  0.00    -0.354 OA
BRANCH  23  27
HETATM   27  O   UNL     1      23.275  10.934  14.611  1.00  0.00    -0.390 OA
ATOM     28  HO  UNL     1      23.050  11.609  15.242  1.00  0.00     0.210 HD
ENDBRANCH  23  27
BRANCH  24  29
HETATM   29  O   UNL     1      22.504  10.862  17.120  1.00  0.00    -0.388 OA
ATOM     30  HO  UNL     1      21.744  10.347  17.366  1.00  0.00     0.210 HD
ENDBRANCH  24  29
BRANCH  25  31
HETATM   31  N   UNL     1      23.979   7.950  18.249  1.00  0.00    -0.297 N 
HETATM   32  C   UNL     1      24.385   6.642  18.363  1.00  0.00     0.188 A 
HETATM   33  N   UNL     1      25.252   6.436  19.327  1.00  0.00    -0.346 N 
HETATM   34  C   UNL     1      25.424   7.696  19.889  1.00  0.00     0.122 A 
ATOM     35  HN  UNL     1      25.695   5.559  19.600  1.00  0.00     0.167 HD
HETATM   36  C   UNL     1      26.238   8.169  20.936  1.00  0.00     0.131 A 
HETATM   37  C   UNL     1      24.636   8.632  19.240  1.00  0.00     0.142 A 
HETATM   38  N   UNL     1      26.198   9.490  21.209  1.00  0.00    -0.337 N 
HETATM   39  C   UNL     1      25.375  10.272  20.508  1.00  0.00     0.183 A 
ATOM     40  HN  UNL     1      26.789   9.886  21.940  1.00  0.00     0.168 HD
HETATM   41  N   UNL     1      24.560   9.945  19.511  1.00  0.00    -0.336 N 
ATOM     42  HN  UNL     1      23.956  10.603  19.018  1.00  0.00     0.168 HD
BRANCH  36  43
HETATM   43  N   UNL     1      27.026   7.385  21.690  1.00  0.00    -0.383 N 
ATOM     44  HN2 UNL     1      27.162   6.387  21.528  1.00  0.00     0.157 HD
ATOM     45  HN1 UNL     1      27.505   7.803  22.488  1.00  0.00     0.157 HD
ENDBRANCH  36  43
ENDBRANCH  25  31
ENDBRANCH  21  22
ENDBRANCH  16  21
ENDBRANCH  15  16
ENDBRANCH  14  15
ENDBRANCH   1  13
BRANCH   2  46
HETATM   46  C   UNL     1      16.789   9.775  10.888  1.00  0.00     0.263 C 
HETATM   47  C   UNL     1      16.665   8.557   9.978  1.00  0.00     0.198 C 
HETATM   48  C   UNL     1      16.642   9.282   8.642  1.00  0.00     0.181 C 
HETATM   49  C   UNL     1      15.703  10.447   8.948  1.00  0.00     0.173 C 
HETATM   50  O   UNL     1      15.878  10.724  10.366  1.00  0.00    -0.354 OA
BRANCH  47  51
HETATM   51  O   UNL     1      17.760   7.661  10.095  1.00  0.00    -0.388 OA
ATOM     52  HO  UNL     1      17.788   7.015   9.399  1.00  0.00     0.210 HD
ENDBRANCH  47  51
BRANCH  48  53
HETATM   53  O   UNL     1      17.943   9.689   8.221  1.00  0.00    -0.390 OA
ATOM     54  HO  UNL     1      18.623   9.102   8.528  1.00  0.00     0.210 HD
ENDBRANCH  48  53
BRANCH  49  55
HETATM   55  C   UNL     1      14.251  10.092   8.693  1.00  0.00     0.159 C 
BRANCH  55  56
HETATM   56  N   UNL     1      13.937   9.722   7.330  1.00  0.00    -0.341 N 
HETATM   57  C   UNL     1      13.125   8.687   7.041  1.00  0.00     0.316 C 
HETATM   58  O   UNL     1      12.650   7.961   7.914  1.00  0.00    -0.247 OA
HETATM   59  N   UNL     1      12.909   8.487   5.717  1.00  0.00    -0.342 N 
ATOM     60  HN  UNL     1      13.465   9.016   5.046  1.00  0.00     0.164 HD
ATOM     61  HN  UNL     1      14.343  10.261   6.565  1.00  0.00     0.164 HD
BRANCH  59  62
HETATM   62  C   UNL     1      11.917   7.547   5.215  1.00  0.00     0.151 C 
BRANCH  62  63
HETATM   63  C   UNL     1      12.524   6.683   4.134  1.00  0.00     0.249 C 
BRANCH  63  64
HETATM   64  N   UNL     1      13.412   7.467   3.258  1.00  0.00    -0.078 N 
ATOM     65  HN3 UNL     1      14.390   7.361   3.525  1.00  0.00     0.274 HD
ATOM     66  HN2 UNL     1      13.460   7.068   2.321  1.00  0.00     0.274 HD
ATOM     67  HN1 UNL     1      13.136   8.449   3.234  1.00  0.00     0.274 HD
ENDBRANCH  63  64
ENDBRANCH  62  63
ENDBRANCH  59  62
ENDBRANCH  55  56
ENDBRANCH  49  55
ENDBRANCH   2  46
BRANCH   6  68
HETATM   68  N   UNL     1      14.385   8.887  16.332  1.00  0.00    -0.383 N 
ATOM     69  HN2 UNL     1      14.716   9.611  16.969  1.00  0.00     0.157 HD
ATOM     70  HN1 UNL     1      14.059   8.011  16.741  1.00  0.00     0.157 HD
ENDBRANCH   6  68
TORSDOF 20
ENDMDL
MODEL 18
REMARK VINA RESULT:    -7.884      5.117      7.541
REMARK INTER + INTRA:         -18.179
REMARK INTER:                 -13.274
REMARK INTRA:                  -4.906
REMARK UNBOUND:                -2.690
REMARK  20 active torsions:
REMARK  status: ('A' for Active; 'I' for Inactive)
REMARK       I    between atoms: N_1  and  C_20 
REMARK    1  A    between atoms: N_1  and  C_9 
REMARK    2  A    between atoms: C_3  and  O_65 
REMARK    3  A    between atoms: C_4  and  C_7 
REMARK       I    between atoms: N_5  and  C_20 
REMARK    4  A    between atoms: N_5  and  C_17 
REMARK    5  A    between atoms: C_9  and  C_26 
REMARK    6  A    between atoms: O_10  and  C_34 
REMARK    7  A    between atoms: C_12  and  N_14 
REMARK    8  A    between atoms: C_13  and  O_18 
REMARK    9  A    between atoms: C_15  and  C_17 
REMARK   10  A    between atoms: N_21  and  C_29 
REMARK   11  A    between atoms: N_21  and  C_40 
REMARK   12  A    between atoms: N_21  and  C_30 
REMARK   13  A    between atoms: N_22  and  C_26 
REMARK   14  A    between atoms: C_28  and  C_29 
REMARK   15  A    between atoms: C_30  and  C_31 
REMARK   16  A    between atoms: C_32  and  N_55 
REMARK   17  A    between atoms: C_33  and  O_67 
REMARK   18  A    between atoms: C_39  and  N_62 
REMARK   19  A    between atoms: C_40  and  C_41 
REMARK   20  A    between atoms: C_45  and  N_52 
ROOT
HETATM    1  C   UNL     1      16.358   9.359  12.207  1.00  0.00     0.168 A 
HETATM    2  N   UNL     1      17.306   8.630  11.503  1.00  0.00    -0.279 N 
HETATM    3  C   UNL     1      16.048   9.818  10.149  1.00  0.00     0.123 A 
HETATM    4  C   UNL     1      17.108   8.930  10.178  1.00  0.00     0.143 A 
HETATM    5  C   UNL     1      17.294   8.942   7.986  1.00  0.00     0.183 A 
HETATM    6  C   UNL     1      15.617  10.254   8.883  1.00  0.00     0.131 A 
HETATM    7  N   UNL     1      15.591  10.098  11.429  1.00  0.00    -0.329 N 
ATOM      8  HN  UNL     1      14.838  10.729  11.704  1.00  0.00     0.168 HD
HETATM    9  N   UNL     1      17.782   8.454   9.127  1.00  0.00    -0.336 N 
ATOM     10  HN  UNL     1      18.565   7.804   9.189  1.00  0.00     0.168 HD
HETATM   11  N   UNL     1      16.287   9.797   7.806  1.00  0.00    -0.337 N 
ATOM     12  HN  UNL     1      16.029  10.102   6.868  1.00  0.00     0.168 HD
ENDROOT
BRANCH   1  13
HETATM   13  C   UNL     1      16.224   9.272  13.616  1.00  0.00    -0.028 C 
HETATM   14  C   UNL     1      16.203   9.357  14.804  1.00  0.00    -0.068 C 
BRANCH  14  15
HETATM   15  C   UNL     1      16.069   9.309  16.271  1.00  0.00     0.367 C 
BRANCH  15  16
HETATM   16  N   UNL     1      17.085   8.493  16.944  1.00  0.00     0.111 N 
BRANCH  16  17
HETATM   17  C   UNL     1      17.176   7.150  16.373  1.00  0.00     0.386 C 
BRANCH  17  18
HETATM   18  C   UNL     1      17.326   5.992  17.336  1.00  0.00     0.202 C 
HETATM   19  O   UNL     1      16.285   5.734  18.091  1.00  0.00    -0.647 OA
HETATM   20  O   UNL     1      18.361   5.353  17.407  1.00  0.00    -0.647 OA
ENDBRANCH  17  18
ENDBRANCH  16  17
BRANCH  16  21
HETATM   21  C   UNL     1      18.397   9.143  17.103  1.00  0.00     0.308 C 
BRANCH  21  22
HETATM   22  C   UNL     1      19.400   8.483  16.180  1.00  0.00     0.184 C 
HETATM   23  C   UNL     1      20.784   8.328  16.797  1.00  0.00     0.182 C 
HETATM   24  C   UNL     1      21.680   8.188  15.556  1.00  0.00     0.198 C 
HETATM   25  C   UNL     1      20.856   8.878  14.462  1.00  0.00     0.262 C 
HETATM   26  O   UNL     1      19.635   9.330  15.039  1.00  0.00    -0.354 OA
BRANCH  23  27
HETATM   27  O   UNL     1      20.848   7.147  17.571  1.00  0.00    -0.390 OA
ATOM     28  HO  UNL     1      21.552   6.592  17.255  1.00  0.00     0.210 HD
ENDBRANCH  23  27
BRANCH  24  29
HETATM   29  O   UNL     1      21.863   6.827  15.171  1.00  0.00    -0.388 OA
ATOM     30  HO  UNL     1      22.364   6.818  14.364  1.00  0.00     0.210 HD
ENDBRANCH  24  29
BRANCH  25  31
HETATM   31  N   UNL     1      21.517   9.982  13.809  1.00  0.00    -0.297 N 
HETATM   32  C   UNL     1      22.849  10.141  13.512  1.00  0.00     0.188 A 
HETATM   33  N   UNL     1      23.112  11.220  12.812  1.00  0.00    -0.346 N 
HETATM   34  C   UNL     1      21.867  11.813  12.642  1.00  0.00     0.122 A 
ATOM     35  HN  UNL     1      24.018  11.546  12.473  1.00  0.00     0.167 HD
HETATM   36  C   UNL     1      21.449  12.974  11.961  1.00  0.00     0.131 A 
HETATM   37  C   UNL     1      20.880  11.065  13.262  1.00  0.00     0.142 A 
HETATM   38  N   UNL     1      20.128  13.250  11.954  1.00  0.00    -0.337 N 
HETATM   39  C   UNL     1      19.294  12.444  12.611  1.00  0.00     0.183 A 
ATOM     40  HN  UNL     1      19.773  14.064  11.452  1.00  0.00     0.168 HD
HETATM   41  N   UNL     1      19.565  11.335  13.290  1.00  0.00    -0.336 N 
ATOM     42  HN  UNL     1      18.869  10.765  13.770  1.00  0.00     0.168 HD
BRANCH  36  43
HETATM   43  N   UNL     1      22.284  13.828  11.347  1.00  0.00    -0.383 N 
ATOM     44  HN2 UNL     1      22.070  14.809  11.170  1.00  0.00     0.157 HD
ATOM     45  HN1 UNL     1      23.183  13.475  11.017  1.00  0.00     0.157 HD
ENDBRANCH  36  43
ENDBRANCH  25  31
ENDBRANCH  21  22
ENDBRANCH  16  21
ENDBRANCH  15  16
ENDBRANCH  14  15
ENDBRANCH   1  13
BRANCH   2  46
HETATM   46  C   UNL     1      18.346   7.745  11.994  1.00  0.00     0.263 C 
HETATM   47  C   UNL     1      18.206   6.266  11.645  1.00  0.00     0.198 C 
HETATM   48  C   UNL     1      19.611   5.818  12.013  1.00  0.00     0.181 C 
HETATM   49  C   UNL     1      20.451   6.948  11.422  1.00  0.00     0.173 C 
HETATM   50  O   UNL     1      19.606   8.131  11.478  1.00  0.00    -0.354 OA
BRANCH  47  51
HETATM   51  O   UNL     1      17.205   5.607  12.406  1.00  0.00    -0.388 OA
ATOM     52  HO  UNL     1      16.385   6.085  12.437  1.00  0.00     0.210 HD
ENDBRANCH  47  51
BRANCH  48  53
HETATM   53  O   UNL     1      19.778   5.655  13.421  1.00  0.00    -0.390 OA
ATOM     54  HO  UNL     1      19.989   4.760  13.659  1.00  0.00     0.210 HD
ENDBRANCH  48  53
BRANCH  49  55
HETATM   55  C   UNL     1      20.829   6.683   9.978  1.00  0.00     0.159 C 
BRANCH  55  56
HETATM   56  N   UNL     1      20.657   5.315   9.537  1.00  0.00    -0.341 N 
HETATM   57  C   UNL     1      19.770   4.981   8.580  1.00  0.00     0.316 C 
HETATM   58  O   UNL     1      19.016   5.807   8.066  1.00  0.00    -0.247 OA
HETATM   59  N   UNL     1      19.748   3.664   8.260  1.00  0.00    -0.342 N 
ATOM     60  HN  UNL     1      20.277   3.011   8.840  1.00  0.00     0.164 HD
ATOM     61  HN  UNL     1      21.223   4.582   9.964  1.00  0.00     0.164 HD
BRANCH  59  62
HETATM   62  C   UNL     1      19.002   3.141   7.124  1.00  0.00     0.151 C 
BRANCH  62  63
HETATM   63  C   UNL     1      17.699   2.539   7.596  1.00  0.00     0.249 C 
BRANCH  63  64
HETATM   64  N   UNL     1      17.854   1.886   8.907  1.00  0.00    -0.078 N 
ATOM     65  HN3 UNL     1      17.451   2.448   9.656  1.00  0.00     0.274 HD
ATOM     66  HN2 UNL     1      17.257   1.064   8.988  1.00  0.00     0.274 HD
ATOM     67  HN1 UNL     1      18.831   1.659   9.094  1.00  0.00     0.274 HD
ENDBRANCH  63  64
ENDBRANCH  62  63
ENDBRANCH  59  62
ENDBRANCH  55  56
ENDBRANCH  49  55
ENDBRANCH   2  46
BRANCH   6  68
HETATM   68  N   UNL     1      14.554  11.042   8.686  1.00  0.00    -0.383 N 
ATOM     69  HN2 UNL     1      13.810  11.039   9.383  1.00  0.00     0.157 HD
ATOM     70  HN1 UNL     1      14.458  11.683   7.898  1.00  0.00     0.157 HD
ENDBRANCH   6  68
TORSDOF 20
ENDMDL
MODEL 19
REMARK VINA RESULT:    -7.824      2.815      9.563
REMARK INTER + INTRA:         -18.061
REMARK INTER:                 -14.195
REMARK INTRA:                  -3.866
REMARK UNBOUND:                -2.690
REMARK  20 active torsions:
REMARK  status: ('A' for Active; 'I' for Inactive)
REMARK       I    between atoms: N_1  and  C_20 
REMARK    1  A    between atoms: N_1  and  C_9 
REMARK    2  A    between atoms: C_3  and  O_65 
REMARK    3  A    between atoms: C_4  and  C_7 
REMARK       I    between atoms: N_5  and  C_20 
REMARK    4  A    between atoms: N_5  and  C_17 
REMARK    5  A    between atoms: C_9  and  C_26 
REMARK    6  A    between atoms: O_10  and  C_34 
REMARK    7  A    between atoms: C_12  and  N_14 
REMARK    8  A    between atoms: C_13  and  O_18 
REMARK    9  A    between atoms: C_15  and  C_17 
REMARK   10  A    between atoms: N_21  and  C_29 
REMARK   11  A    between atoms: N_21  and  C_40 
REMARK   12  A    between atoms: N_21  and  C_30 
REMARK   13  A    between atoms: N_22  and  C_26 
REMARK   14  A    between atoms: C_28  and  C_29 
REMARK   15  A    between atoms: C_30  and  C_31 
REMARK   16  A    between atoms: C_32  and  N_55 
REMARK   17  A    between atoms: C_33  and  O_67 
REMARK   18  A    between atoms: C_39  and  N_62 
REMARK   19  A    between atoms: C_40  and  C_41 
REMARK   20  A    between atoms: C_45  and  N_52 
ROOT
HETATM    1  C   UNL     1      23.918   4.833  15.020  1.00  0.00     0.168 A 
HETATM    2  N   UNL     1      24.067   5.734  16.065  1.00  0.00    -0.279 N 
HETATM    3  C   UNL     1      25.248   3.914  16.410  1.00  0.00     0.123 A 
HETATM    4  C   UNL     1      24.926   5.144  16.956  1.00  0.00     0.143 A 
HETATM    5  C   UNL     1      26.159   4.772  18.740  1.00  0.00     0.183 A 
HETATM    6  C   UNL     1      26.098   3.085  17.163  1.00  0.00     0.131 A 
HETATM    7  N   UNL     1      24.625   3.732  15.183  1.00  0.00    -0.329 N 
ATOM      8  HN  UNL     1      24.697   2.932  14.554  1.00  0.00     0.168 HD
HETATM    9  N   UNL     1      25.355   5.637  18.122  1.00  0.00    -0.336 N 
ATOM     10  HN  UNL     1      25.101   6.554  18.490  1.00  0.00     0.168 HD
HETATM   11  N   UNL     1      26.554   3.564  18.338  1.00  0.00    -0.337 N 
ATOM     12  HN  UNL     1      27.191   3.011  18.910  1.00  0.00     0.168 HD
ENDROOT
BRANCH   1  13
HETATM   13  C   UNL     1      23.060   5.080  13.919  1.00  0.00    -0.028 C 
HETATM   14  C   UNL     1      22.425   5.447  12.980  1.00  0.00    -0.068 C 
BRANCH  14  15
HETATM   15  C   UNL     1      21.561   5.732  11.820  1.00  0.00     0.367 C 
BRANCH  15  16
HETATM   16  N   UNL     1      20.260   6.315  12.165  1.00  0.00     0.111 N 
BRANCH  16  17
HETATM   17  C   UNL     1      19.309   6.232  11.056  1.00  0.00     0.386 C 
BRANCH  17  18
HETATM   18  C   UNL     1      19.112   7.472  10.213  1.00  0.00     0.202 C 
HETATM   19  O   UNL     1      19.013   7.279   8.920  1.00  0.00    -0.647 OA
HETATM   20  O   UNL     1      19.062   8.582  10.715  1.00  0.00    -0.647 OA
ENDBRANCH  17  18
ENDBRANCH  16  17
BRANCH  16  21
HETATM   21  C   UNL     1      19.695   5.856  13.445  1.00  0.00     0.308 C 
BRANCH  21  22
HETATM   22  C   UNL     1      19.224   7.054  14.245  1.00  0.00     0.184 C 
HETATM   23  C   UNL     1      17.792   7.470  13.930  1.00  0.00     0.182 C 
HETATM   24  C   UNL     1      17.770   8.935  14.396  1.00  0.00     0.198 C 
HETATM   25  C   UNL     1      19.247   9.339  14.319  1.00  0.00     0.262 C 
HETATM   26  O   UNL     1      19.997   8.212  13.877  1.00  0.00    -0.354 OA
BRANCH  23  27
HETATM   27  O   UNL     1      16.880   6.709  14.696  1.00  0.00    -0.390 OA
ATOM     28  HO  UNL     1      17.328   6.319  15.438  1.00  0.00     0.210 HD
ENDBRANCH  23  27
BRANCH  24  29
HETATM   29  O   UNL     1      17.352   9.066  15.754  1.00  0.00    -0.388 OA
ATOM     30  HO  UNL     1      16.495   8.663  15.834  1.00  0.00     0.210 HD
ENDBRANCH  24  29
BRANCH  25  31
HETATM   31  N   UNL     1      19.524  10.467  13.464  1.00  0.00    -0.297 N 
HETATM   32  C   UNL     1      18.649  11.368  12.907  1.00  0.00     0.188 A 
HETATM   33  N   UNL     1      19.235  12.349  12.261  1.00  0.00    -0.346 N 
HETATM   34  C   UNL     1      20.590  12.070  12.398  1.00  0.00     0.122 A 
ATOM     35  HN  UNL     1      18.799  13.131  11.772  1.00  0.00     0.167 HD
HETATM   36  C   UNL     1      21.750  12.744  11.968  1.00  0.00     0.131 A 
HETATM   37  C   UNL     1      20.778  10.908  13.127  1.00  0.00     0.142 A 
HETATM   38  N   UNL     1      22.942  12.214  12.315  1.00  0.00    -0.337 N 
HETATM   39  C   UNL     1      22.969  11.075  13.008  1.00  0.00     0.183 A 
ATOM     40  HN  UNL     1      23.811  12.679  12.050  1.00  0.00     0.168 HD
HETATM   41  N   UNL     1      21.952  10.349  13.460  1.00  0.00    -0.336 N 
ATOM     42  HN  UNL     1      22.050   9.482  13.989  1.00  0.00     0.168 HD
BRANCH  36  43
HETATM   43  N   UNL     1      21.739  13.858  11.218  1.00  0.00    -0.383 N 
ATOM     44  HN2 UNL     1      22.579  14.351  10.916  1.00  0.00     0.157 HD
ATOM     45  HN1 UNL     1      20.838  14.251  10.946  1.00  0.00     0.157 HD
ENDBRANCH  36  43
ENDBRANCH  25  31
ENDBRANCH  21  22
ENDBRANCH  16  21
ENDBRANCH  15  16
ENDBRANCH  14  15
ENDBRANCH   1  13
BRANCH   2  46
HETATM   46  C   UNL     1      23.496   7.059  16.234  1.00  0.00     0.263 C 
HETATM   47  C   UNL     1      22.402   7.202  17.287  1.00  0.00     0.198 C 
HETATM   48  C   UNL     1      22.375   8.719  17.372  1.00  0.00     0.181 C 
HETATM   49  C   UNL     1      23.866   9.047  17.376  1.00  0.00     0.173 C 
HETATM   50  O   UNL     1      24.499   7.982  16.611  1.00  0.00    -0.354 OA
BRANCH  47  51
HETATM   51  O   UNL     1      21.158   6.656  16.875  1.00  0.00    -0.388 OA
ATOM     52  HO  UNL     1      20.935   5.852  17.329  1.00  0.00     0.210 HD
ENDBRANCH  47  51
BRANCH  48  53
HETATM   53  O   UNL     1      21.660   9.312  16.289  1.00  0.00    -0.390 OA
ATOM     54  HO  UNL     1      21.230  10.122  16.539  1.00  0.00     0.210 HD
ENDBRANCH  48  53
BRANCH  49  55
HETATM   55  C   UNL     1      24.445   9.056  18.778  1.00  0.00     0.159 C 
BRANCH  55  56
HETATM   56  N   UNL     1      24.655  10.368  19.349  1.00  0.00    -0.341 N 
HETATM   57  C   UNL     1      25.356  10.547  20.486  1.00  0.00     0.316 C 
HETATM   58  O   UNL     1      25.809   9.604  21.133  1.00  0.00    -0.247 OA
HETATM   59  N   UNL     1      25.486  11.839  20.875  1.00  0.00    -0.342 N 
ATOM     60  HN  UNL     1      24.946  12.554  20.387  1.00  0.00     0.164 HD
ATOM     61  HN  UNL     1      24.260  11.182  18.878  1.00  0.00     0.164 HD
BRANCH  59  62
HETATM   62  C   UNL     1      26.364  12.249  21.962  1.00  0.00     0.151 C 
BRANCH  62  63
HETATM   63  C   UNL     1      25.588  13.056  22.976  1.00  0.00     0.249 C 
BRANCH  63  64
HETATM   64  N   UNL     1      24.365  13.625  22.385  1.00  0.00    -0.078 N 
ATOM     65  HN3 UNL     1      23.954  14.338  22.988  1.00  0.00     0.274 HD
ATOM     66  HN2 UNL     1      24.577  14.206  21.575  1.00  0.00     0.274 HD
ATOM     67  HN1 UNL     1      23.690  12.896  22.157  1.00  0.00     0.274 HD
ENDBRANCH  63  64
ENDBRANCH  62  63
ENDBRANCH  59  62
ENDBRANCH  55  56
ENDBRANCH  49  55
ENDBRANCH   2  46
BRANCH   6  68
HETATM   68  N   UNL     1      26.429   1.837  16.810  1.00  0.00    -0.383 N 
ATOM     69  HN2 UNL     1      26.960   1.270  17.471  1.00  0.00     0.157 HD
ATOM     70  HN1 UNL     1      26.146   1.399  15.934  1.00  0.00     0.157 HD
ENDBRANCH   6  68
TORSDOF 20
ENDMDL
MODEL 20
REMARK VINA RESULT:    -7.757      4.721      9.454
REMARK INTER + INTRA:         -17.929
REMARK INTER:                 -13.287
REMARK INTRA:                  -4.642
REMARK UNBOUND:                -2.690
REMARK  20 active torsions:
REMARK  status: ('A' for Active; 'I' for Inactive)
REMARK       I    between atoms: N_1  and  C_20 
REMARK    1  A    between atoms: N_1  and  C_9 
REMARK    2  A    between atoms: C_3  and  O_65 
REMARK    3  A    between atoms: C_4  and  C_7 
REMARK       I    between atoms: N_5  and  C_20 
REMARK    4  A    between atoms: N_5  and  C_17 
REMARK    5  A    between atoms: C_9  and  C_26 
REMARK    6  A    between atoms: O_10  and  C_34 
REMARK    7  A    between atoms: C_12  and  N_14 
REMARK    8  A    between atoms: C_13  and  O_18 
REMARK    9  A    between atoms: C_15  and  C_17 
REMARK   10  A    between atoms: N_21  and  C_29 
REMARK   11  A    between atoms: N_21  and  C_40 
REMARK   12  A    between atoms: N_21  and  C_30 
REMARK   13  A    between atoms: N_22  and  C_26 
REMARK   14  A    between atoms: C_28  and  C_29 
REMARK   15  A    between atoms: C_30  and  C_31 
REMARK   16  A    between atoms: C_32  and  N_55 
REMARK   17  A    between atoms: C_33  and  O_67 
REMARK   18  A    between atoms: C_39  and  N_62 
REMARK   19  A    between atoms: C_40  and  C_41 
REMARK   20  A    between atoms: C_45  and  N_52 
ROOT
HETATM    1  C   UNL     1      16.839  10.162  13.209  1.00  0.00     0.168 A 
HETATM    2  N   UNL     1      16.091   9.954  12.058  1.00  0.00    -0.279 N 
HETATM    3  C   UNL     1      14.901   9.562  13.863  1.00  0.00     0.123 A 
HETATM    4  C   UNL     1      14.843   9.573  12.481  1.00  0.00     0.143 A 
HETATM    5  C   UNL     1      12.748   8.901  12.477  1.00  0.00     0.183 A 
HETATM    6  C   UNL     1      13.740   9.159  14.547  1.00  0.00     0.131 A 
HETATM    7  N   UNL     1      16.154   9.951  14.316  1.00  0.00    -0.329 N 
ATOM      8  HN  UNL     1      16.471  10.051  15.280  1.00  0.00     0.168 HD
HETATM    9  N   UNL     1      13.788   9.256  11.723  1.00  0.00    -0.336 N 
ATOM     10  HN  UNL     1      13.781   9.282  10.703  1.00  0.00     0.168 HD
HETATM   11  N   UNL     1      12.659   8.846  13.806  1.00  0.00    -0.337 N 
ATOM     12  HN  UNL     1      11.786   8.570  14.255  1.00  0.00     0.168 HD
ENDROOT
BRANCH   1  13
HETATM   13  C   UNL     1      18.208  10.528  13.170  1.00  0.00    -0.028 C 
HETATM   14  C   UNL     1      19.298  11.007  13.125  1.00  0.00    -0.068 C 
BRANCH  14  15
HETATM   15  C   UNL     1      20.711  11.427  13.098  1.00  0.00     0.367 C 
BRANCH  15  16
HETATM   16  N   UNL     1      21.652  10.410  13.578  1.00  0.00     0.111 N 
BRANCH  16  17
HETATM   17  C   UNL     1      21.442  10.090  14.990  1.00  0.00     0.386 C 
BRANCH  17  18
HETATM   18  C   UNL     1      22.621  10.253  15.924  1.00  0.00     0.202 C 
HETATM   19  O   UNL     1      22.365  10.821  17.078  1.00  0.00    -0.647 OA
HETATM   20  O   UNL     1      23.739   9.885  15.609  1.00  0.00    -0.647 OA
ENDBRANCH  17  18
ENDBRANCH  16  17
BRANCH  16  21
HETATM   21  C   UNL     1      21.761   9.215  12.725  1.00  0.00     0.308 C 
BRANCH  21  22
HETATM   22  C   UNL     1      21.218   8.014  13.471  1.00  0.00     0.184 C 
HETATM   23  C   UNL     1      22.180   6.832  13.504  1.00  0.00     0.182 C 
HETATM   24  C   UNL     1      21.234   5.651  13.778  1.00  0.00     0.198 C 
HETATM   25  C   UNL     1      19.886   6.167  13.261  1.00  0.00     0.262 C 
HETATM   26  O   UNL     1      20.071   7.492  12.773  1.00  0.00    -0.354 OA
BRANCH  23  27
HETATM   27  O   UNL     1      23.095   6.973  14.572  1.00  0.00    -0.390 OA
ATOM     28  HO  UNL     1      22.863   7.730  15.098  1.00  0.00     0.210 HD
ENDBRANCH  23  27
BRANCH  24  29
HETATM   29  O   UNL     1      21.093   5.383  15.172  1.00  0.00    -0.388 OA
ATOM     30  HO  UNL     1      21.936   5.533  15.584  1.00  0.00     0.210 HD
ENDBRANCH  24  29
BRANCH  25  31
HETATM   31  N   UNL     1      19.280   5.356  12.233  1.00  0.00    -0.297 N 
HETATM   32  C   UNL     1      18.237   4.468  12.333  1.00  0.00     0.188 A 
HETATM   33  N   UNL     1      17.852   3.967  11.182  1.00  0.00    -0.346 N 
HETATM   34  C   UNL     1      18.706   4.565  10.262  1.00  0.00     0.122 A 
ATOM     35  HN  UNL     1      17.104   3.297  11.004  1.00  0.00     0.167 HD
HETATM   36  C   UNL     1      18.804   4.482   8.859  1.00  0.00     0.131 A 
HETATM   37  C   UNL     1      19.596   5.412  10.901  1.00  0.00     0.142 A 
HETATM   38  N   UNL     1      19.740   5.244   8.254  1.00  0.00    -0.337 N 
HETATM   39  C   UNL     1      20.541   6.003   9.003  1.00  0.00     0.183 A 
ATOM     40  HN  UNL     1      19.832   5.240   7.239  1.00  0.00     0.168 HD
HETATM   41  N   UNL     1      20.551   6.158  10.323  1.00  0.00    -0.336 N 
ATOM     42  HN  UNL     1      21.198   6.763  10.829  1.00  0.00     0.168 HD
BRANCH  36  43
HETATM   43  N   UNL     1      18.046   3.677   8.098  1.00  0.00    -0.383 N 
ATOM     44  HN2 UNL     1      17.119   3.924   7.752  1.00  0.00     0.157 HD
ATOM     45  HN1 UNL     1      18.405   2.752   7.863  1.00  0.00     0.157 HD
ENDBRANCH  36  43
ENDBRANCH  25  31
ENDBRANCH  21  22
ENDBRANCH  16  21
ENDBRANCH  15  16
ENDBRANCH  14  15
ENDBRANCH   1  13
BRANCH   2  46
HETATM   46  C   UNL     1      16.467  10.121  10.666  1.00  0.00     0.263 C 
HETATM   47  C   UNL     1      16.830   8.853   9.900  1.00  0.00     0.198 C 
HETATM   48  C   UNL     1      16.789   9.425   8.492  1.00  0.00     0.181 C 
HETATM   49  C   UNL     1      15.521  10.275   8.551  1.00  0.00     0.173 C 
HETATM   50  O   UNL     1      15.406  10.706   9.936  1.00  0.00    -0.354 OA
BRANCH  47  51
HETATM   51  O   UNL     1      18.108   8.340  10.244  1.00  0.00    -0.388 OA
ATOM     52  HO  UNL     1      18.768   9.017  10.336  1.00  0.00     0.210 HD
ENDBRANCH  47  51
BRANCH  48  53
HETATM   53  O   UNL     1      17.963  10.169   8.173  1.00  0.00    -0.390 OA
ATOM     54  HO  UNL     1      18.196  10.103   7.255  1.00  0.00     0.210 HD
ENDBRANCH  48  53
BRANCH  49  55
HETATM   55  C   UNL     1      14.284   9.480   8.180  1.00  0.00     0.159 C 
BRANCH  55  56
HETATM   56  N   UNL     1      13.943   9.491   6.773  1.00  0.00    -0.341 N 
HETATM   57  C   UNL     1      14.025   8.383   6.011  1.00  0.00     0.316 C 
HETATM   58  O   UNL     1      14.449   7.314   6.450  1.00  0.00    -0.247 OA
HETATM   59  N   UNL     1      13.645   8.552   4.721  1.00  0.00    -0.342 N 
ATOM     60  HN  UNL     1      13.466   9.498   4.384  1.00  0.00     0.164 HD
ATOM     61  HN  UNL     1      13.631  10.363   6.347  1.00  0.00     0.164 HD
BRANCH  59  62
HETATM   62  C   UNL     1      13.481   7.439   3.797  1.00  0.00     0.151 C 
BRANCH  62  63
HETATM   63  C   UNL     1      12.110   6.825   3.967  1.00  0.00     0.249 C 
BRANCH  63  64
HETATM   64  N   UNL     1      12.137   5.716   4.936  1.00  0.00    -0.078 N 
ATOM     65  HN3 UNL     1      12.341   4.827   4.482  1.00  0.00     0.274 HD
ATOM     66  HN2 UNL     1      12.952   5.773   5.546  1.00  0.00     0.274 HD
ATOM     67  HN1 UNL     1      11.270   5.672   5.472  1.00  0.00     0.274 HD
ENDBRANCH  63  64
ENDBRANCH  62  63
ENDBRANCH  59  62
ENDBRANCH  55  56
ENDBRANCH  49  55
ENDBRANCH   2  46
BRANCH   6  68
HETATM   68  N   UNL     1      13.667   9.015  15.875  1.00  0.00    -0.383 N 
ATOM     69  HN2 UNL     1      12.767   9.160  16.332  1.00  0.00     0.157 HD
ATOM     70  HN1 UNL     1      14.451   8.725  16.460  1.00  0.00     0.157 HD
ENDBRANCH   6  68
TORSDOF 20
ENDMDL
