REMARK  2 active torsions:
REMARK  status: ('A' for Active; 'I' for Inactive)
REMARK    1  A    between atoms: C_8  and  C_10 
REMARK    2  A    between atoms: C_8  and  C_9 
ROOT
HETATM    1  C   UNL     1     -29.821 -14.433  15.434  1.00  0.00     0.106 A 
HETATM    2  C   UNL     1     -30.862 -13.914  16.197  1.00  0.00     0.106 A 
HETATM    3  C   UNL     1     -30.108 -12.364  14.935  1.00  0.00     0.085 A 
HETATM    4  N   UNL     1     -29.382 -13.441  14.677  1.00  0.00    -0.354 N 
ATOM      5  HN  UNL     1     -28.614 -13.496  14.008  1.00  0.00     0.166 HD
HETATM    6  N   UNL     1     -31.003 -12.638  15.870  1.00  0.00    -0.354 N 
ATOM      7  HN  UNL     1     -31.679 -11.985  16.267  1.00  0.00     0.166 HD
ENDROOT
BRANCH   3   8
HETATM    8  C   UNL     1     -29.959 -10.978  14.309  1.00  0.00     0.115 C 
BRANCH   8   9
HETATM    9  C   UNL     1     -30.243 -10.931  12.811  1.00  0.00    -0.051 A 
HETATM   10  C   UNL     1     -29.569 -11.755  11.924  1.00  0.00     0.007 A 
HETATM   11  C   UNL     1     -29.834 -11.659  10.564  1.00  0.00     0.001 A 
HETATM   12  C   UNL     1     -30.757 -10.734  10.105  1.00  0.00     0.000 A 
HETATM   13  C   UNL     1     -31.426  -9.907  10.987  1.00  0.00     0.001 A 
HETATM   14  C   UNL     1     -31.166 -10.004  12.339  1.00  0.00     0.007 A 
ENDBRANCH   8   9
ENDBRANCH   3   8
TORSDOF 2
