MODEL 1
REMARK VINA RESULT:    -8.540      0.000      0.000
REMARK INTER + INTRA:         -10.492
REMARK INTER:                 -10.038
REMARK INTRA:                  -0.454
REMARK UNBOUND:                -0.454
REMARK  3 active torsions:
REMARK  status: ('A' for Active; 'I' for Inactive)
REMARK    1  A    between atoms: C_1  and  C_9 
REMARK    2  A    between atoms: C_4  and  C_5 
REMARK    3  A    between atoms: C_8  and  C_11 
ROOT
HETATM    1  C   UNL     1      38.324 -42.366  11.909  1.00  0.00     0.040 A 
HETATM    2  C   UNL     1      39.267 -41.681  12.667  1.00  0.00     0.019 A 
HETATM    3  C   UNL     1      39.014 -40.400  13.119  1.00  0.00     0.013 A 
HETATM    4  C   UNL     1      37.814 -39.755  12.833  1.00  0.00    -0.026 A 
HETATM    5  C   UNL     1      36.876 -40.447  12.067  1.00  0.00     0.013 A 
HETATM    6  C   UNL     1      37.124 -41.729  11.611  1.00  0.00     0.019 A 
ENDROOT
BRANCH   4   7
HETATM    7  C   UNL     1      37.535 -38.387  13.339  1.00  0.00    -0.025 A 
HETATM    8  C   UNL     1      36.894 -38.196  14.565  1.00  0.00     0.030 A 
HETATM    9  C   UNL     1      36.612 -36.917  15.038  1.00  0.00     0.041 A 
HETATM   10  C   UNL     1      36.986 -35.815  14.281  1.00  0.00     0.018 A 
HETATM   11  C   UNL     1      37.624 -35.987  13.066  1.00  0.00     0.002 A 
HETATM   12  C   UNL     1      37.895 -37.262  12.596  1.00  0.00     0.012 A 
BRANCH   9  13
HETATM   13  C   UNL     1      35.889 -36.732  16.327  1.00  0.00     0.209 C 
HETATM   14  O   UNL     1      35.038 -37.527  16.699  1.00  0.00    -0.644 OA
HETATM   15  O   UNL     1      36.232 -35.674  17.011  1.00  0.00    -0.644 OA
ENDBRANCH   9  13
ENDBRANCH   4   7
BRANCH   1  16
HETATM   16  C   UNL     1      38.587 -43.756  11.448  1.00  0.00     0.209 C 
HETATM   17  O   UNL     1      37.769 -44.653  11.606  1.00  0.00    -0.644 OA
HETATM   18  O   UNL     1      39.738 -43.931  10.866  1.00  0.00    -0.644 OA
ENDBRANCH   1  16
TORSDOF 3
ENDMDL
MODEL 2
REMARK VINA RESULT:    -8.456      0.593      1.473
REMARK INTER + INTRA:         -10.394
REMARK INTER:                  -9.938
REMARK INTRA:                  -0.455
REMARK UNBOUND:                -0.454
REMARK  3 active torsions:
REMARK  status: ('A' for Active; 'I' for Inactive)
REMARK    1  A    between atoms: C_1  and  C_9 
REMARK    2  A    between atoms: C_4  and  C_5 
REMARK    3  A    between atoms: C_8  and  C_11 
ROOT
HETATM    1  C   UNL     1      38.342 -42.334  11.896  1.00  0.00     0.040 A 
HETATM    2  C   UNL     1      37.119 -41.769  11.554  1.00  0.00     0.019 A 
HETATM    3  C   UNL     1      36.778 -40.504  11.995  1.00  0.00     0.013 A 
HETATM    4  C   UNL     1      37.641 -39.758  12.792  1.00  0.00    -0.026 A 
HETATM    5  C   UNL     1      38.863 -40.335  13.136  1.00  0.00     0.013 A 
HETATM    6  C   UNL     1      39.210 -41.600  12.698  1.00  0.00     0.019 A 
ENDROOT
BRANCH   4   7
HETATM    7  C   UNL     1      37.281 -38.391  13.247  1.00  0.00    -0.025 A 
HETATM    8  C   UNL     1      36.455 -38.203  14.358  1.00  0.00     0.030 A 
HETATM    9  C   UNL     1      36.096 -36.925  14.780  1.00  0.00     0.041 A 
HETATM   10  C   UNL     1      36.578 -35.821  14.089  1.00  0.00     0.018 A 
HETATM   11  C   UNL     1      37.399 -35.990  12.988  1.00  0.00     0.002 A 
HETATM   12  C   UNL     1      37.746 -37.264  12.567  1.00  0.00     0.012 A 
BRANCH   9  13
HETATM   13  C   UNL     1      35.181 -36.743  15.939  1.00  0.00     0.209 C 
HETATM   14  O   UNL     1      35.178 -37.528  16.877  1.00  0.00    -0.644 OA
HETATM   15  O   UNL     1      34.398 -35.700  15.874  1.00  0.00    -0.644 OA
ENDBRANCH   9  13
ENDBRANCH   4   7
BRANCH   1  16
HETATM   16  C   UNL     1      38.721 -43.684  11.397  1.00  0.00     0.209 C 
HETATM   17  O   UNL     1      39.805 -43.895  10.870  1.00  0.00    -0.644 OA
HETATM   18  O   UNL     1      37.818 -44.605  11.572  1.00  0.00    -0.644 OA
ENDBRANCH   1  16
TORSDOF 3
ENDMDL
MODEL 3
REMARK VINA RESULT:    -7.744      1.884      6.800
REMARK INTER + INTRA:          -9.556
REMARK INTER:                  -9.076
REMARK INTRA:                  -0.481
REMARK UNBOUND:                -0.454
REMARK  3 active torsions:
REMARK  status: ('A' for Active; 'I' for Inactive)
REMARK    1  A    between atoms: C_1  and  C_9 
REMARK    2  A    between atoms: C_4  and  C_5 
REMARK    3  A    between atoms: C_8  and  C_11 
ROOT
HETATM    1  C   UNL     1      36.645 -37.454  14.913  1.00  0.00     0.040 A 
HETATM    2  C   UNL     1      37.260 -36.674  13.941  1.00  0.00     0.019 A 
HETATM    3  C   UNL     1      37.860 -37.259  12.841  1.00  0.00     0.013 A 
HETATM    4  C   UNL     1      37.867 -38.640  12.670  1.00  0.00    -0.026 A 
HETATM    5  C   UNL     1      37.252 -39.416  13.653  1.00  0.00     0.013 A 
HETATM    6  C   UNL     1      36.652 -38.836  14.756  1.00  0.00     0.019 A 
ENDROOT
BRANCH   4   7
HETATM    7  C   UNL     1      38.492 -39.264  11.476  1.00  0.00    -0.025 A 
HETATM    8  C   UNL     1      39.171 -40.480  11.580  1.00  0.00     0.030 A 
HETATM    9  C   UNL     1      39.778 -41.063  10.470  1.00  0.00     0.041 A 
HETATM   10  C   UNL     1      39.692 -40.428   9.238  1.00  0.00     0.018 A 
HETATM   11  C   UNL     1      39.021 -39.225   9.118  1.00  0.00     0.002 A 
HETATM   12  C   UNL     1      38.427 -38.645  10.227  1.00  0.00     0.012 A 
BRANCH   9  13
HETATM   13  C   UNL     1      40.535 -42.337  10.607  1.00  0.00     0.209 C 
HETATM   14  O   UNL     1      39.962 -43.402  10.792  1.00  0.00    -0.644 OA
HETATM   15  O   UNL     1      41.833 -42.227  10.516  1.00  0.00    -0.644 OA
ENDBRANCH   9  13
ENDBRANCH   4   7
BRANCH   1  16
HETATM   16  C   UNL     1      35.975 -36.822  16.082  1.00  0.00     0.209 C 
HETATM   17  O   UNL     1      35.088 -37.392  16.702  1.00  0.00    -0.644 OA
HETATM   18  O   UNL     1      36.412 -35.634  16.385  1.00  0.00    -0.644 OA
ENDBRANCH   1  16
TORSDOF 3
ENDMDL
MODEL 4
REMARK VINA RESULT:    -7.407      2.165      2.803
REMARK INTER + INTRA:          -9.160
REMARK INTER:                  -8.699
REMARK INTRA:                  -0.461
REMARK UNBOUND:                -0.454
REMARK  3 active torsions:
REMARK  status: ('A' for Active; 'I' for Inactive)
REMARK    1  A    between atoms: C_1  and  C_9 
REMARK    2  A    between atoms: C_4  and  C_5 
REMARK    3  A    between atoms: C_8  and  C_11 
ROOT
HETATM    1  C   UNL     1      39.603 -41.336  11.506  1.00  0.00     0.040 A 
HETATM    2  C   UNL     1      39.186 -41.361  12.832  1.00  0.00     0.019 A 
HETATM    3  C   UNL     1      38.353 -40.375  13.328  1.00  0.00     0.013 A 
HETATM    4  C   UNL     1      37.906 -39.332  12.522  1.00  0.00    -0.026 A 
HETATM    5  C   UNL     1      38.335 -39.311  11.195  1.00  0.00     0.013 A 
HETATM    6  C   UNL     1      39.169 -40.294  10.694  1.00  0.00     0.019 A 
ENDROOT
BRANCH   4   7
HETATM    7  C   UNL     1      36.994 -38.287  13.052  1.00  0.00    -0.025 A 
HETATM    8  C   UNL     1      37.177 -36.943  12.718  1.00  0.00     0.030 A 
HETATM    9  C   UNL     1      36.339 -35.954  13.226  1.00  0.00     0.041 A 
HETATM   10  C   UNL     1      35.296 -36.314  14.069  1.00  0.00     0.018 A 
HETATM   11  C   UNL     1      35.099 -37.641  14.408  1.00  0.00     0.002 A 
HETATM   12  C   UNL     1      35.942 -38.620  13.907  1.00  0.00     0.012 A 
BRANCH   9  13
HETATM   13  C   UNL     1      36.575 -34.522  12.894  1.00  0.00     0.209 C 
HETATM   14  O   UNL     1      37.385 -33.850  13.515  1.00  0.00    -0.644 OA
HETATM   15  O   UNL     1      35.859 -34.053  11.906  1.00  0.00    -0.644 OA
ENDBRANCH   9  13
ENDBRANCH   4   7
BRANCH   1  16
HETATM   16  C   UNL     1      40.477 -42.413  10.966  1.00  0.00     0.209 C 
HETATM   17  O   UNL     1      40.077 -43.563  10.836  1.00  0.00    -0.644 OA
HETATM   18  O   UNL     1      41.678 -42.032  10.642  1.00  0.00    -0.644 OA
ENDBRANCH   1  16
TORSDOF 3
ENDMDL
MODEL 5
REMARK VINA RESULT:    -7.024      1.761      7.126
REMARK INTER + INTRA:          -8.710
REMARK INTER:                  -8.230
REMARK INTRA:                  -0.480
REMARK UNBOUND:                -0.454
REMARK  3 active torsions:
REMARK  status: ('A' for Active; 'I' for Inactive)
REMARK    1  A    between atoms: C_1  and  C_9 
REMARK    2  A    between atoms: C_4  and  C_5 
REMARK    3  A    between atoms: C_8  and  C_11 
ROOT
HETATM    1  C   UNL     1      35.732 -35.346  16.295  1.00  0.00     0.040 A 
HETATM    2  C   UNL     1      36.800 -34.921  15.513  1.00  0.00     0.019 A 
HETATM    3  C   UNL     1      37.372 -35.766  14.580  1.00  0.00     0.013 A 
HETATM    4  C   UNL     1      36.900 -37.063  14.393  1.00  0.00    -0.026 A 
HETATM    5  C   UNL     1      35.833 -37.483  15.186  1.00  0.00     0.013 A 
HETATM    6  C   UNL     1      35.258 -36.642  16.121  1.00  0.00     0.019 A 
ENDROOT
BRANCH   4   7
HETATM    7  C   UNL     1      37.502 -37.960  13.375  1.00  0.00    -0.025 A 
HETATM    8  C   UNL     1      37.846 -39.275  13.697  1.00  0.00     0.030 A 
HETATM    9  C   UNL     1      38.429 -40.119  12.754  1.00  0.00     0.041 A 
HETATM   10  C   UNL     1      38.659 -39.645  11.469  1.00  0.00     0.018 A 
HETATM   11  C   UNL     1      38.321 -38.346  11.133  1.00  0.00     0.002 A 
HETATM   12  C   UNL     1      37.750 -37.509  12.077  1.00  0.00     0.012 A 
BRANCH   9  13
HETATM   13  C   UNL     1      38.829 -41.503  13.126  1.00  0.00     0.209 C 
HETATM   14  O   UNL     1      38.994 -41.826  14.294  1.00  0.00    -0.644 OA
HETATM   15  O   UNL     1      38.987 -42.326  12.124  1.00  0.00    -0.644 OA
ENDBRANCH   9  13
ENDBRANCH   4   7
BRANCH   1  16
HETATM   16  C   UNL     1      35.099 -34.426  17.279  1.00  0.00     0.209 C 
HETATM   17  O   UNL     1      34.389 -34.840  18.185  1.00  0.00    -0.644 OA
HETATM   18  O   UNL     1      35.367 -33.165  17.099  1.00  0.00    -0.644 OA
ENDBRANCH   1  16
TORSDOF 3
ENDMDL
MODEL 6
REMARK VINA RESULT:    -6.998      4.132      7.554
REMARK INTER + INTRA:          -8.680
REMARK INTER:                  -8.211
REMARK INTRA:                  -0.469
REMARK UNBOUND:                -0.454
REMARK  3 active torsions:
REMARK  status: ('A' for Active; 'I' for Inactive)
REMARK    1  A    between atoms: C_1  and  C_9 
REMARK    2  A    between atoms: C_4  and  C_5 
REMARK    3  A    between atoms: C_8  and  C_11 
ROOT
HETATM    1  C   UNL     1      38.146 -40.238  12.997  1.00  0.00     0.040 A 
HETATM    2  C   UNL     1      38.973 -41.352  12.919  1.00  0.00     0.019 A 
HETATM    3  C   UNL     1      39.775 -41.561  11.812  1.00  0.00     0.013 A 
HETATM    4  C   UNL     1      39.781 -40.668  10.744  1.00  0.00    -0.026 A 
HETATM    5  C   UNL     1      38.943 -39.556  10.828  1.00  0.00     0.013 A 
HETATM    6  C   UNL     1      38.138 -39.343  11.933  1.00  0.00     0.019 A 
ENDROOT
BRANCH   4   7
HETATM    7  C   UNL     1      40.659 -40.883   9.567  1.00  0.00    -0.025 A 
HETATM    8  C   UNL     1      42.036 -41.051   9.725  1.00  0.00     0.030 A 
HETATM    9  C   UNL     1      42.870 -41.234   8.624  1.00  0.00     0.041 A 
HETATM   10  C   UNL     1      42.318 -41.261   7.351  1.00  0.00     0.018 A 
HETATM   11  C   UNL     1      40.956 -41.098   7.177  1.00  0.00     0.002 A 
HETATM   12  C   UNL     1      40.131 -40.907   8.274  1.00  0.00     0.012 A 
BRANCH   9  13
HETATM   13  C   UNL     1      44.341 -41.369   8.807  1.00  0.00     0.209 C 
HETATM   14  O   UNL     1      44.900 -42.452   8.698  1.00  0.00    -0.644 OA
HETATM   15  O   UNL     1      44.973 -40.261   9.089  1.00  0.00    -0.644 OA
ENDBRANCH   9  13
ENDBRANCH   4   7
BRANCH   1  16
HETATM   16  C   UNL     1      37.305 -40.000  14.202  1.00  0.00     0.209 C 
HETATM   17  O   UNL     1      37.406 -40.693  15.205  1.00  0.00    -0.644 OA
HETATM   18  O   UNL     1      36.473 -39.004  14.100  1.00  0.00    -0.644 OA
ENDBRANCH   1  16
TORSDOF 3
ENDMDL
MODEL 7
REMARK VINA RESULT:    -6.994      2.413      7.520
REMARK INTER + INTRA:          -8.675
REMARK INTER:                  -8.184
REMARK INTRA:                  -0.491
REMARK UNBOUND:                -0.454
REMARK  3 active torsions:
REMARK  status: ('A' for Active; 'I' for Inactive)
REMARK    1  A    between atoms: C_1  and  C_9 
REMARK    2  A    between atoms: C_4  and  C_5 
REMARK    3  A    between atoms: C_8  and  C_11 
ROOT
HETATM    1  C   UNL     1      37.140 -34.025  14.540  1.00  0.00     0.040 A 
HETATM    2  C   UNL     1      36.602 -35.014  15.355  1.00  0.00     0.019 A 
HETATM    3  C   UNL     1      36.781 -36.351  15.053  1.00  0.00     0.013 A 
HETATM    4  C   UNL     1      37.501 -36.750  13.931  1.00  0.00    -0.026 A 
HETATM    5  C   UNL     1      38.032 -35.751  13.115  1.00  0.00     0.013 A 
HETATM    6  C   UNL     1      37.855 -34.412  13.411  1.00  0.00     0.019 A 
ENDROOT
BRANCH   4   7
HETATM    7  C   UNL     1      37.710 -38.187  13.621  1.00  0.00    -0.025 A 
HETATM    8  C   UNL     1      38.217 -38.584  12.382  1.00  0.00     0.030 A 
HETATM    9  C   UNL     1      38.398 -39.931  12.076  1.00  0.00     0.041 A 
HETATM   10  C   UNL     1      38.079 -40.892  13.026  1.00  0.00     0.018 A 
HETATM   11  C   UNL     1      37.578 -40.516  14.259  1.00  0.00     0.002 A 
HETATM   12  C   UNL     1      37.392 -39.175  14.555  1.00  0.00     0.012 A 
BRANCH   9  13
HETATM   13  C   UNL     1      38.899 -40.339  10.735  1.00  0.00     0.209 C 
HETATM   14  O   UNL     1      39.941 -40.966  10.608  1.00  0.00    -0.644 OA
HETATM   15  O   UNL     1      38.150 -39.979   9.727  1.00  0.00    -0.644 OA
ENDBRANCH   9  13
ENDBRANCH   4   7
BRANCH   1  16
HETATM   16  C   UNL     1      36.971 -32.586  14.881  1.00  0.00     0.209 C 
HETATM   17  O   UNL     1      36.108 -32.205  15.660  1.00  0.00    -0.644 OA
HETATM   18  O   UNL     1      37.811 -31.783  14.295  1.00  0.00    -0.644 OA
ENDBRANCH   1  16
TORSDOF 3
ENDMDL
MODEL 8
REMARK VINA RESULT:    -6.944      2.396      6.987
REMARK INTER + INTRA:          -8.617
REMARK INTER:                  -8.127
REMARK INTRA:                  -0.489
REMARK UNBOUND:                -0.454
REMARK  3 active torsions:
REMARK  status: ('A' for Active; 'I' for Inactive)
REMARK    1  A    between atoms: C_1  and  C_9 
REMARK    2  A    between atoms: C_4  and  C_5 
REMARK    3  A    between atoms: C_8  and  C_11 
ROOT
HETATM    1  C   UNL     1      36.549 -37.886  14.699  1.00  0.00     0.040 A 
HETATM    2  C   UNL     1      37.105 -37.369  13.534  1.00  0.00     0.019 A 
HETATM    3  C   UNL     1      37.854 -38.171  12.694  1.00  0.00     0.013 A 
HETATM    4  C   UNL     1      38.077 -39.515  12.983  1.00  0.00    -0.026 A 
HETATM    5  C   UNL     1      37.522 -40.023  14.157  1.00  0.00     0.013 A 
HETATM    6  C   UNL     1      36.771 -39.225  15.002  1.00  0.00     0.019 A 
ENDROOT
BRANCH   4   7
HETATM    7  C   UNL     1      38.864 -40.379  12.068  1.00  0.00    -0.025 A 
HETATM    8  C   UNL     1      39.135 -39.972  10.759  1.00  0.00     0.030 A 
HETATM    9  C   UNL     1      39.856 -40.784   9.887  1.00  0.00     0.041 A 
HETATM   10  C   UNL     1      40.323 -42.013  10.334  1.00  0.00     0.018 A 
HETATM   11  C   UNL     1      40.066 -42.429  11.628  1.00  0.00     0.002 A 
HETATM   12  C   UNL     1      39.341 -41.622  12.488  1.00  0.00     0.012 A 
BRANCH   9  13
HETATM   13  C   UNL     1      40.098 -40.354   8.483  1.00  0.00     0.209 C 
HETATM   14  O   UNL     1      40.643 -41.094   7.676  1.00  0.00    -0.644 OA
HETATM   15  O   UNL     1      39.689 -39.149   8.190  1.00  0.00    -0.644 OA
ENDBRANCH   9  13
ENDBRANCH   4   7
BRANCH   1  16
HETATM   16  C   UNL     1      35.718 -37.029  15.588  1.00  0.00     0.209 C 
HETATM   17  O   UNL     1      34.637 -36.583  15.227  1.00  0.00    -0.644 OA
HETATM   18  O   UNL     1      36.228 -36.804  16.764  1.00  0.00    -0.644 OA
ENDBRANCH   1  16
TORSDOF 3
ENDMDL
MODEL 9
REMARK VINA RESULT:    -6.926      1.660      2.663
REMARK INTER + INTRA:          -8.595
REMARK INTER:                  -8.109
REMARK INTRA:                  -0.486
REMARK UNBOUND:                -0.454
REMARK  3 active torsions:
REMARK  status: ('A' for Active; 'I' for Inactive)
REMARK    1  A    between atoms: C_1  and  C_9 
REMARK    2  A    between atoms: C_4  and  C_5 
REMARK    3  A    between atoms: C_8  and  C_11 
ROOT
HETATM    1  C   UNL     1      37.967 -40.120  12.646  1.00  0.00     0.040 A 
HETATM    2  C   UNL     1      38.202 -39.017  11.833  1.00  0.00     0.019 A 
HETATM    3  C   UNL     1      37.985 -37.735  12.302  1.00  0.00     0.013 A 
HETATM    4  C   UNL     1      37.527 -37.506  13.597  1.00  0.00    -0.026 A 
HETATM    5  C   UNL     1      37.287 -38.618  14.404  1.00  0.00     0.013 A 
HETATM    6  C   UNL     1      37.502 -39.903  13.939  1.00  0.00     0.019 A 
ENDROOT
BRANCH   4   7
HETATM    7  C   UNL     1      37.315 -36.127  14.105  1.00  0.00    -0.025 A 
HETATM    8  C   UNL     1      36.684 -35.907  15.332  1.00  0.00     0.030 A 
HETATM    9  C   UNL     1      36.464 -34.617  15.808  1.00  0.00     0.041 A 
HETATM   10  C   UNL     1      36.891 -33.533  15.053  1.00  0.00     0.018 A 
HETATM   11  C   UNL     1      37.521 -33.733  13.837  1.00  0.00     0.002 A 
HETATM   12  C   UNL     1      37.729 -35.019  13.364  1.00  0.00     0.012 A 
BRANCH   9  13
HETATM   13  C   UNL     1      35.751 -34.400  17.096  1.00  0.00     0.209 C 
HETATM   14  O   UNL     1      35.984 -33.424  17.796  1.00  0.00    -0.644 OA
HETATM   15  O   UNL     1      34.877 -35.318  17.412  1.00  0.00    -0.644 OA
ENDBRANCH   9  13
ENDBRANCH   4   7
BRANCH   1  16
HETATM   16  C   UNL     1      38.229 -41.498  12.150  1.00  0.00     0.209 C 
HETATM   17  O   UNL     1      37.401 -42.114  11.492  1.00  0.00    -0.644 OA
HETATM   18  O   UNL     1      39.396 -41.981  12.465  1.00  0.00    -0.644 OA
ENDBRANCH   1  16
TORSDOF 3
ENDMDL
MODEL 10
REMARK VINA RESULT:    -6.926      4.503      5.728
REMARK INTER + INTRA:          -8.595
REMARK INTER:                  -8.106
REMARK INTRA:                  -0.489
REMARK UNBOUND:                -0.454
REMARK  3 active torsions:
REMARK  status: ('A' for Active; 'I' for Inactive)
REMARK    1  A    between atoms: C_1  and  C_9 
REMARK    2  A    between atoms: C_4  and  C_5 
REMARK    3  A    between atoms: C_8  and  C_11 
ROOT
HETATM    1  C   UNL     1      40.341 -38.911   7.189  1.00  0.00     0.040 A 
HETATM    2  C   UNL     1      39.295 -38.387   7.940  1.00  0.00     0.019 A 
HETATM    3  C   UNL     1      38.959 -38.937   9.162  1.00  0.00     0.013 A 
HETATM    4  C   UNL     1      39.652 -40.028   9.681  1.00  0.00    -0.026 A 
HETATM    5  C   UNL     1      40.696 -40.552   8.918  1.00  0.00     0.013 A 
HETATM    6  C   UNL     1      41.036 -40.005   7.693  1.00  0.00     0.019 A 
ENDROOT
BRANCH   4   7
HETATM    7  C   UNL     1      39.303 -40.603  11.004  1.00  0.00    -0.025 A 
HETATM    8  C   UNL     1      38.451 -39.922  11.876  1.00  0.00     0.030 A 
HETATM    9  C   UNL     1      38.133 -40.444  13.128  1.00  0.00     0.041 A 
HETATM   10  C   UNL     1      38.664 -41.670  13.506  1.00  0.00     0.018 A 
HETATM   11  C   UNL     1      39.507 -42.359  12.653  1.00  0.00     0.002 A 
HETATM   12  C   UNL     1      39.827 -41.831  11.413  1.00  0.00     0.012 A 
BRANCH   9  13
HETATM   13  C   UNL     1      37.259 -39.684  14.062  1.00  0.00     0.209 C 
HETATM   14  O   UNL     1      36.564 -38.757  13.672  1.00  0.00    -0.644 OA
HETATM   15  O   UNL     1      37.295 -40.080  15.306  1.00  0.00    -0.644 OA
ENDBRANCH   9  13
ENDBRANCH   4   7
BRANCH   1  16
HETATM   16  C   UNL     1      40.721 -38.299   5.886  1.00  0.00     0.209 C 
HETATM   17  O   UNL     1      40.527 -38.874   4.824  1.00  0.00    -0.644 OA
HETATM   18  O   UNL     1      41.260 -37.118   5.974  1.00  0.00    -0.644 OA
ENDBRANCH   1  16
TORSDOF 3
ENDMDL
MODEL 11
REMARK VINA RESULT:    -6.925      4.390      5.702
REMARK INTER + INTRA:          -8.594
REMARK INTER:                  -8.112
REMARK INTRA:                  -0.482
REMARK UNBOUND:                -0.454
REMARK  3 active torsions:
REMARK  status: ('A' for Active; 'I' for Inactive)
REMARK    1  A    between atoms: C_1  and  C_9 
REMARK    2  A    between atoms: C_4  and  C_5 
REMARK    3  A    between atoms: C_8  and  C_11 
ROOT
HETATM    1  C   UNL     1      42.638 -40.645   7.978  1.00  0.00     0.040 A 
HETATM    2  C   UNL     1      41.384 -40.276   7.506  1.00  0.00     0.019 A 
HETATM    3  C   UNL     1      40.270 -40.365   8.320  1.00  0.00     0.013 A 
HETATM    4  C   UNL     1      40.365 -40.823   9.631  1.00  0.00    -0.026 A 
HETATM    5  C   UNL     1      41.627 -41.198  10.094  1.00  0.00     0.013 A 
HETATM    6  C   UNL     1      42.745 -41.112   9.284  1.00  0.00     0.019 A 
ENDROOT
BRANCH   4   7
HETATM    7  C   UNL     1      39.171 -40.897  10.510  1.00  0.00    -0.025 A 
HETATM    8  C   UNL     1      39.232 -40.462  11.836  1.00  0.00     0.030 A 
HETATM    9  C   UNL     1      38.122 -40.545  12.673  1.00  0.00     0.041 A 
HETATM   10  C   UNL     1      36.932 -41.058  12.174  1.00  0.00     0.018 A 
HETATM   11  C   UNL     1      36.854 -41.490  10.862  1.00  0.00     0.002 A 
HETATM   12  C   UNL     1      37.964 -41.414  10.037  1.00  0.00     0.012 A 
BRANCH   9  13
HETATM   13  C   UNL     1      38.217 -40.117  14.096  1.00  0.00     0.209 C 
HETATM   14  O   UNL     1      37.544 -40.650  14.967  1.00  0.00    -0.644 OA
HETATM   15  O   UNL     1      39.059 -39.147  14.331  1.00  0.00    -0.644 OA
ENDBRANCH   9  13
ENDBRANCH   4   7
BRANCH   1  16
HETATM   16  C   UNL     1      43.841 -40.522   7.110  1.00  0.00     0.209 C 
HETATM   17  O   UNL     1      43.854 -39.796   6.126  1.00  0.00    -0.644 OA
HETATM   18  O   UNL     1      44.862 -41.236   7.487  1.00  0.00    -0.644 OA
ENDBRANCH   1  16
TORSDOF 3
ENDMDL
MODEL 12
REMARK VINA RESULT:    -6.912      5.032      6.676
REMARK INTER + INTRA:          -8.579
REMARK INTER:                  -8.113
REMARK INTRA:                  -0.466
REMARK UNBOUND:                -0.454
REMARK  3 active torsions:
REMARK  status: ('A' for Active; 'I' for Inactive)
REMARK    1  A    between atoms: C_1  and  C_9 
REMARK    2  A    between atoms: C_4  and  C_5 
REMARK    3  A    between atoms: C_8  and  C_11 
ROOT
HETATM    1  C   UNL     1      42.921 -39.901   7.310  1.00  0.00     0.040 A 
HETATM    2  C   UNL     1      41.542 -39.775   7.185  1.00  0.00     0.019 A 
HETATM    3  C   UNL     1      40.696 -40.295   8.146  1.00  0.00     0.013 A 
HETATM    4  C   UNL     1      41.191 -40.959   9.265  1.00  0.00    -0.026 A 
HETATM    5  C   UNL     1      42.576 -41.086   9.379  1.00  0.00     0.013 A 
HETATM    6  C   UNL     1      43.427 -40.568   8.420  1.00  0.00     0.019 A 
ENDROOT
BRANCH   4   7
HETATM    7  C   UNL     1      40.281 -41.498  10.306  1.00  0.00    -0.025 A 
HETATM    8  C   UNL     1      39.862 -40.697  11.372  1.00  0.00     0.030 A 
HETATM    9  C   UNL     1      39.024 -41.200  12.364  1.00  0.00     0.041 A 
HETATM   10  C   UNL     1      38.588 -42.516  12.282  1.00  0.00     0.018 A 
HETATM   11  C   UNL     1      38.991 -43.321  11.232  1.00  0.00     0.002 A 
HETATM   12  C   UNL     1      39.833 -42.819  10.253  1.00  0.00     0.012 A 
BRANCH   9  13
HETATM   13  C   UNL     1      38.623 -40.347  13.516  1.00  0.00     0.209 C 
HETATM   14  O   UNL     1      37.939 -40.789  14.428  1.00  0.00    -0.644 OA
HETATM   15  O   UNL     1      39.051 -39.113  13.472  1.00  0.00    -0.644 OA
ENDBRANCH   9  13
ENDBRANCH   4   7
BRANCH   1  16
HETATM   16  C   UNL     1      43.832 -39.314   6.289  1.00  0.00     0.209 C 
HETATM   17  O   UNL     1      45.047 -39.435   6.365  1.00  0.00    -0.644 OA
HETATM   18  O   UNL     1      43.234 -38.680   5.323  1.00  0.00    -0.644 OA
ENDBRANCH   1  16
TORSDOF 3
ENDMDL
MODEL 13
REMARK VINA RESULT:    -6.817      2.445      3.636
REMARK INTER + INTRA:          -8.467
REMARK INTER:                  -8.004
REMARK INTRA:                  -0.463
REMARK UNBOUND:                -0.454
REMARK  3 active torsions:
REMARK  status: ('A' for Active; 'I' for Inactive)
REMARK    1  A    between atoms: C_1  and  C_9 
REMARK    2  A    between atoms: C_4  and  C_5 
REMARK    3  A    between atoms: C_8  and  C_11 
ROOT
HETATM    1  C   UNL     1      38.234 -39.881  13.338  1.00  0.00     0.040 A 
HETATM    2  C   UNL     1      38.388 -38.846  12.422  1.00  0.00     0.019 A 
HETATM    3  C   UNL     1      37.774 -37.625  12.628  1.00  0.00     0.013 A 
HETATM    4  C   UNL     1      36.987 -37.390  13.752  1.00  0.00    -0.026 A 
HETATM    5  C   UNL     1      36.833 -38.436  14.663  1.00  0.00     0.013 A 
HETATM    6  C   UNL     1      37.444 -39.660  14.461  1.00  0.00     0.019 A 
ENDROOT
BRANCH   4   7
HETATM    7  C   UNL     1      36.347 -36.070  13.982  1.00  0.00    -0.025 A 
HETATM    8  C   UNL     1      37.115 -34.955  14.326  1.00  0.00     0.030 A 
HETATM    9  C   UNL     1      36.522 -33.717  14.562  1.00  0.00     0.041 A 
HETATM   10  C   UNL     1      35.145 -33.590  14.440  1.00  0.00     0.018 A 
HETATM   11  C   UNL     1      34.370 -34.684  14.097  1.00  0.00     0.002 A 
HETATM   12  C   UNL     1      34.965 -35.915  13.872  1.00  0.00     0.012 A 
BRANCH   9  13
HETATM   13  C   UNL     1      37.350 -32.550  14.971  1.00  0.00     0.209 C 
HETATM   14  O   UNL     1      37.245 -32.053  16.083  1.00  0.00    -0.644 OA
HETATM   15  O   UNL     1      38.180 -32.110  14.063  1.00  0.00    -0.644 OA
ENDBRANCH   9  13
ENDBRANCH   4   7
BRANCH   1  16
HETATM   16  C   UNL     1      38.919 -41.186  13.130  1.00  0.00     0.209 C 
HETATM   17  O   UNL     1      39.215 -41.587  12.012  1.00  0.00    -0.644 OA
HETATM   18  O   UNL     1      39.176 -41.849  14.220  1.00  0.00    -0.644 OA
ENDBRANCH   1  16
TORSDOF 3
ENDMDL
MODEL 14
REMARK VINA RESULT:    -6.713      1.735      7.174
REMARK INTER + INTRA:          -8.345
REMARK INTER:                  -7.872
REMARK INTRA:                  -0.473
REMARK UNBOUND:                -0.454
REMARK  3 active torsions:
REMARK  status: ('A' for Active; 'I' for Inactive)
REMARK    1  A    between atoms: C_1  and  C_9 
REMARK    2  A    between atoms: C_4  and  C_5 
REMARK    3  A    between atoms: C_8  and  C_11 
ROOT
HETATM    1  C   UNL     1      36.821 -36.190  14.502  1.00  0.00     0.040 A 
HETATM    2  C   UNL     1      36.076 -37.348  14.691  1.00  0.00     0.019 A 
HETATM    3  C   UNL     1      36.355 -38.492  13.966  1.00  0.00     0.013 A 
HETATM    4  C   UNL     1      37.384 -38.523  13.029  1.00  0.00    -0.026 A 
HETATM    5  C   UNL     1      38.122 -37.354  12.842  1.00  0.00     0.013 A 
HETATM    6  C   UNL     1      37.847 -36.207  13.564  1.00  0.00     0.019 A 
ENDROOT
BRANCH   4   7
HETATM    7  C   UNL     1      37.695 -39.759  12.268  1.00  0.00    -0.025 A 
HETATM    8  C   UNL     1      38.973 -39.975  11.748  1.00  0.00     0.030 A 
HETATM    9  C   UNL     1      39.269 -41.122  11.016  1.00  0.00     0.041 A 
HETATM   10  C   UNL     1      38.277 -42.072  10.812  1.00  0.00     0.018 A 
HETATM   11  C   UNL     1      37.007 -41.875  11.323  1.00  0.00     0.002 A 
HETATM   12  C   UNL     1      36.715 -40.728  12.042  1.00  0.00     0.012 A 
BRANCH   9  13
HETATM   13  C   UNL     1      40.625 -41.316  10.433  1.00  0.00     0.209 C 
HETATM   14  O   UNL     1      41.019 -40.632   9.498  1.00  0.00    -0.644 OA
HETATM   15  O   UNL     1      41.342 -42.256  10.988  1.00  0.00    -0.644 OA
ENDBRANCH   9  13
ENDBRANCH   4   7
BRANCH   1  16
HETATM   16  C   UNL     1      36.538 -34.968  15.304  1.00  0.00     0.209 C 
HETATM   17  O   UNL     1      35.690 -34.155  14.962  1.00  0.00    -0.644 OA
HETATM   18  O   UNL     1      37.255 -34.845  16.383  1.00  0.00    -0.644 OA
ENDBRANCH   1  16
TORSDOF 3
ENDMDL
MODEL 15
REMARK VINA RESULT:    -6.709      1.970      7.148
REMARK INTER + INTRA:          -8.340
REMARK INTER:                  -7.847
REMARK INTRA:                  -0.493
REMARK UNBOUND:                -0.454
REMARK  3 active torsions:
REMARK  status: ('A' for Active; 'I' for Inactive)
REMARK    1  A    between atoms: C_1  and  C_9 
REMARK    2  A    between atoms: C_4  and  C_5 
REMARK    3  A    between atoms: C_8  and  C_11 
ROOT
HETATM    1  C   UNL     1      36.879 -34.647  15.010  1.00  0.00     0.040 A 
HETATM    2  C   UNL     1      36.565 -35.948  15.386  1.00  0.00     0.019 A 
HETATM    3  C   UNL     1      36.914 -37.019  14.584  1.00  0.00     0.013 A 
HETATM    4  C   UNL     1      37.590 -36.832  13.381  1.00  0.00    -0.026 A 
HETATM    5  C   UNL     1      37.896 -35.523  13.008  1.00  0.00     0.013 A 
HETATM    6  C   UNL     1      37.548 -34.448  13.806  1.00  0.00     0.019 A 
ENDROOT
BRANCH   4   7
HETATM    7  C   UNL     1      37.983 -37.985  12.532  1.00  0.00    -0.025 A 
HETATM    8  C   UNL     1      38.178 -39.250  13.092  1.00  0.00     0.030 A 
HETATM    9  C   UNL     1      38.566 -40.333  12.308  1.00  0.00     0.041 A 
HETATM   10  C   UNL     1      38.750 -40.152  10.944  1.00  0.00     0.018 A 
HETATM   11  C   UNL     1      38.559 -38.907  10.373  1.00  0.00     0.002 A 
HETATM   12  C   UNL     1      38.181 -37.830  11.159  1.00  0.00     0.012 A 
BRANCH   9  13
HETATM   13  C   UNL     1      38.811 -41.664  12.928  1.00  0.00     0.209 C 
HETATM   14  O   UNL     1      38.723 -42.696  12.277  1.00  0.00    -0.644 OA
HETATM   15  O   UNL     1      39.119 -41.640  14.197  1.00  0.00    -0.644 OA
ENDBRANCH   9  13
ENDBRANCH   4   7
BRANCH   1  16
HETATM   16  C   UNL     1      36.528 -33.498  15.888  1.00  0.00     0.209 C 
HETATM   17  O   UNL     1      37.066 -32.406  15.766  1.00  0.00    -0.644 OA
HETATM   18  O   UNL     1      35.610 -33.749  16.776  1.00  0.00    -0.644 OA
ENDBRANCH   1  16
TORSDOF 3
ENDMDL
MODEL 16
REMARK VINA RESULT:    -6.706      3.269      7.659
REMARK INTER + INTRA:          -8.337
REMARK INTER:                  -7.871
REMARK INTRA:                  -0.466
REMARK UNBOUND:                -0.454
REMARK  3 active torsions:
REMARK  status: ('A' for Active; 'I' for Inactive)
REMARK    1  A    between atoms: C_1  and  C_9 
REMARK    2  A    between atoms: C_4  and  C_5 
REMARK    3  A    between atoms: C_8  and  C_11 
ROOT
HETATM    1  C   UNL     1      38.151 -40.086  13.364  1.00  0.00     0.040 A 
HETATM    2  C   UNL     1      37.994 -39.325  12.212  1.00  0.00     0.019 A 
HETATM    3  C   UNL     1      38.481 -39.774  10.998  1.00  0.00     0.013 A 
HETATM    4  C   UNL     1      39.141 -40.995  10.889  1.00  0.00    -0.026 A 
HETATM    5  C   UNL     1      39.299 -41.749  12.052  1.00  0.00     0.013 A 
HETATM    6  C   UNL     1      38.814 -41.305  13.269  1.00  0.00     0.019 A 
ENDROOT
BRANCH   4   7
HETATM    7  C   UNL     1      39.644 -41.484   9.581  1.00  0.00    -0.025 A 
HETATM    8  C   UNL     1      39.067 -42.598   8.965  1.00  0.00     0.030 A 
HETATM    9  C   UNL     1      39.545 -43.076   7.748  1.00  0.00     0.041 A 
HETATM   10  C   UNL     1      40.604 -42.424   7.131  1.00  0.00     0.018 A 
HETATM   11  C   UNL     1      41.184 -41.318   7.725  1.00  0.00     0.002 A 
HETATM   12  C   UNL     1      40.711 -40.852   8.941  1.00  0.00     0.012 A 
BRANCH   9  13
HETATM   13  C   UNL     1      38.947 -44.290   7.127  1.00  0.00     0.209 C 
HETATM   14  O   UNL     1      39.647 -45.168   6.644  1.00  0.00    -0.644 OA
HETATM   15  O   UNL     1      37.642 -44.338   7.141  1.00  0.00    -0.644 OA
ENDBRANCH   9  13
ENDBRANCH   4   7
BRANCH   1  16
HETATM   16  C   UNL     1      37.600 -39.616  14.664  1.00  0.00     0.209 C 
HETATM   17  O   UNL     1      37.325 -40.395  15.567  1.00  0.00    -0.644 OA
HETATM   18  O   UNL     1      37.446 -38.327  14.758  1.00  0.00    -0.644 OA
ENDBRANCH   1  16
TORSDOF 3
ENDMDL
MODEL 17
REMARK VINA RESULT:    -6.654      3.812      5.562
REMARK INTER + INTRA:          -8.276
REMARK INTER:                  -7.811
REMARK INTRA:                  -0.464
REMARK UNBOUND:                -0.454
REMARK  3 active torsions:
REMARK  status: ('A' for Active; 'I' for Inactive)
REMARK    1  A    between atoms: C_1  and  C_9 
REMARK    2  A    between atoms: C_4  and  C_5 
REMARK    3  A    between atoms: C_8  and  C_11 
ROOT
HETATM    1  C   UNL     1      37.513 -38.293  14.382  1.00  0.00     0.040 A 
HETATM    2  C   UNL     1      36.498 -37.595  15.027  1.00  0.00     0.019 A 
HETATM    3  C   UNL     1      36.291 -36.253  14.768  1.00  0.00     0.013 A 
HETATM    4  C   UNL     1      37.085 -35.559  13.860  1.00  0.00    -0.026 A 
HETATM    5  C   UNL     1      38.105 -36.265  13.222  1.00  0.00     0.013 A 
HETATM    6  C   UNL     1      38.317 -37.608  13.478  1.00  0.00     0.019 A 
ENDROOT
BRANCH   4   7
HETATM    7  C   UNL     1      36.845 -34.123  13.568  1.00  0.00    -0.025 A 
HETATM    8  C   UNL     1      36.044 -33.737  12.490  1.00  0.00     0.030 A 
HETATM    9  C   UNL     1      35.830 -32.393  12.197  1.00  0.00     0.041 A 
HETATM   10  C   UNL     1      36.413 -31.422  12.999  1.00  0.00     0.018 A 
HETATM   11  C   UNL     1      37.207 -31.786  14.072  1.00  0.00     0.002 A 
HETATM   12  C   UNL     1      37.425 -33.125  14.354  1.00  0.00     0.012 A 
BRANCH   9  13
HETATM   13  C   UNL     1      35.008 -32.000  11.020  1.00  0.00     0.209 C 
HETATM   14  O   UNL     1      35.067 -30.872  10.551  1.00  0.00    -0.644 OA
HETATM   15  O   UNL     1      34.237 -32.938  10.539  1.00  0.00    -0.644 OA
ENDBRANCH   9  13
ENDBRANCH   4   7
BRANCH   1  16
HETATM   16  C   UNL     1      37.717 -39.744  14.640  1.00  0.00     0.209 C 
HETATM   17  O   UNL     1      38.427 -40.433  13.919  1.00  0.00    -0.644 OA
HETATM   18  O   UNL     1      37.092 -40.208  15.683  1.00  0.00    -0.644 OA
ENDBRANCH   1  16
TORSDOF 3
ENDMDL
MODEL 18
REMARK VINA RESULT:    -6.642      2.321      3.034
REMARK INTER + INTRA:          -8.261
REMARK INTER:                  -7.773
REMARK INTRA:                  -0.488
REMARK UNBOUND:                -0.454
REMARK  3 active torsions:
REMARK  status: ('A' for Active; 'I' for Inactive)
REMARK    1  A    between atoms: C_1  and  C_9 
REMARK    2  A    between atoms: C_4  and  C_5 
REMARK    3  A    between atoms: C_8  and  C_11 
ROOT
HETATM    1  C   UNL     1      38.289 -40.194  13.340  1.00  0.00     0.040 A 
HETATM    2  C   UNL     1      38.485 -39.305  12.290  1.00  0.00     0.019 A 
HETATM    3  C   UNL     1      37.874 -38.064  12.292  1.00  0.00     0.013 A 
HETATM    4  C   UNL     1      37.048 -37.666  13.340  1.00  0.00    -0.026 A 
HETATM    5  C   UNL     1      36.852 -38.567  14.386  1.00  0.00     0.013 A 
HETATM    6  C   UNL     1      37.460 -39.809  14.388  1.00  0.00     0.019 A 
ENDROOT
BRANCH   4   7
HETATM    7  C   UNL     1      36.412 -36.325  13.350  1.00  0.00    -0.025 A 
HETATM    8  C   UNL     1      35.301 -36.068  14.157  1.00  0.00     0.030 A 
HETATM    9  C   UNL     1      34.685 -34.819  14.159  1.00  0.00     0.041 A 
HETATM   10  C   UNL     1      35.194 -33.810  13.352  1.00  0.00     0.018 A 
HETATM   11  C   UNL     1      36.295 -34.047  12.549  1.00  0.00     0.002 A 
HETATM   12  C   UNL     1      36.898 -35.294  12.544  1.00  0.00     0.012 A 
BRANCH   9  13
HETATM   13  C   UNL     1      33.476 -34.575  14.993  1.00  0.00     0.209 C 
HETATM   14  O   UNL     1      32.389 -34.341  14.484  1.00  0.00    -0.644 OA
HETATM   15  O   UNL     1      33.668 -34.631  16.284  1.00  0.00    -0.644 OA
ENDBRANCH   9  13
ENDBRANCH   4   7
BRANCH   1  16
HETATM   16  C   UNL     1      38.970 -41.517  13.350  1.00  0.00     0.209 C 
HETATM   17  O   UNL     1      39.496 -41.979  12.346  1.00  0.00    -0.644 OA
HETATM   18  O   UNL     1      38.964 -42.127  14.500  1.00  0.00    -0.644 OA
ENDBRANCH   1  16
TORSDOF 3
ENDMDL
MODEL 19
REMARK VINA RESULT:    -6.608      2.086      7.166
REMARK INTER + INTRA:          -8.221
REMARK INTER:                  -7.763
REMARK INTRA:                  -0.459
REMARK UNBOUND:                -0.454
REMARK  3 active torsions:
REMARK  status: ('A' for Active; 'I' for Inactive)
REMARK    1  A    between atoms: C_1  and  C_9 
REMARK    2  A    between atoms: C_4  and  C_5 
REMARK    3  A    between atoms: C_8  and  C_11 
ROOT
HETATM    1  C   UNL     1      34.585 -35.705  14.528  1.00  0.00     0.040 A 
HETATM    2  C   UNL     1      34.492 -36.963  15.112  1.00  0.00     0.019 A 
HETATM    3  C   UNL     1      35.335 -37.986  14.721  1.00  0.00     0.013 A 
HETATM    4  C   UNL     1      36.300 -37.793  13.736  1.00  0.00    -0.026 A 
HETATM    5  C   UNL     1      36.382 -36.529  13.151  1.00  0.00     0.013 A 
HETATM    6  C   UNL     1      35.541 -35.502  13.538  1.00  0.00     0.019 A 
ENDROOT
BRANCH   4   7
HETATM    7  C   UNL     1      37.219 -38.888  13.334  1.00  0.00    -0.025 A 
HETATM    8  C   UNL     1      36.832 -39.827  12.375  1.00  0.00     0.030 A 
HETATM    9  C   UNL     1      37.680 -40.869  12.005  1.00  0.00     0.041 A 
HETATM   10  C   UNL     1      38.934 -40.965  12.593  1.00  0.00     0.018 A 
HETATM   11  C   UNL     1      39.333 -40.042  13.542  1.00  0.00     0.002 A 
HETATM   12  C   UNL     1      38.483 -39.012  13.913  1.00  0.00     0.012 A 
BRANCH   9  13
HETATM   13  C   UNL     1      37.236 -41.886  11.013  1.00  0.00     0.209 C 
HETATM   14  O   UNL     1      36.491 -41.592  10.089  1.00  0.00    -0.644 OA
HETATM   15  O   UNL     1      37.696 -43.093  11.208  1.00  0.00    -0.644 OA
ENDBRANCH   9  13
ENDBRANCH   4   7
BRANCH   1  16
HETATM   16  C   UNL     1      33.696 -34.596  14.971  1.00  0.00     0.209 C 
HETATM   17  O   UNL     1      32.559 -34.803  15.374  1.00  0.00    -0.644 OA
HETATM   18  O   UNL     1      34.226 -33.409  14.900  1.00  0.00    -0.644 OA
ENDBRANCH   1  16
TORSDOF 3
ENDMDL
MODEL 20
REMARK VINA RESULT:    -6.555      6.479      8.467
REMARK INTER + INTRA:          -8.159
REMARK INTER:                  -7.676
REMARK INTRA:                  -0.483
REMARK UNBOUND:                -0.454
REMARK  3 active torsions:
REMARK  status: ('A' for Active; 'I' for Inactive)
REMARK    1  A    between atoms: C_1  and  C_9 
REMARK    2  A    between atoms: C_4  and  C_5 
REMARK    3  A    between atoms: C_8  and  C_11 
ROOT
HETATM    1  C   UNL     1      45.337 -40.293   6.463  1.00  0.00     0.040 A 
HETATM    2  C   UNL     1      44.160 -39.953   5.806  1.00  0.00     0.019 A 
HETATM    3  C   UNL     1      42.942 -40.027   6.457  1.00  0.00     0.013 A 
HETATM    4  C   UNL     1      42.854 -40.442   7.783  1.00  0.00    -0.026 A 
HETATM    5  C   UNL     1      44.039 -40.787   8.432  1.00  0.00     0.013 A 
HETATM    6  C   UNL     1      45.260 -40.715   7.785  1.00  0.00     0.019 A 
ENDROOT
BRANCH   4   7
HETATM    7  C   UNL     1      41.547 -40.500   8.485  1.00  0.00    -0.025 A 
HETATM    8  C   UNL     1      41.354 -41.366   9.564  1.00  0.00     0.030 A 
HETATM    9  C   UNL     1      40.126 -41.442  10.217  1.00  0.00     0.041 A 
HETATM   10  C   UNL     1      39.082 -40.631   9.793  1.00  0.00     0.018 A 
HETATM   11  C   UNL     1      39.257 -39.765   8.729  1.00  0.00     0.002 A 
HETATM   12  C   UNL     1      40.478 -39.701   8.077  1.00  0.00     0.012 A 
BRANCH   9  13
HETATM   13  C   UNL     1      39.925 -42.402  11.336  1.00  0.00     0.209 C 
HETATM   14  O   UNL     1      39.666 -42.016  12.467  1.00  0.00    -0.644 OA
HETATM   15  O   UNL     1      40.046 -43.663  11.018  1.00  0.00    -0.644 OA
ENDBRANCH   9  13
ENDBRANCH   4   7
BRANCH   1  16
HETATM   16  C   UNL     1      46.650 -40.184   5.770  1.00  0.00     0.209 C 
HETATM   17  O   UNL     1      46.764 -40.393   4.570  1.00  0.00    -0.644 OA
HETATM   18  O   UNL     1      47.646 -39.849   6.537  1.00  0.00    -0.644 OA
ENDBRANCH   1  16
TORSDOF 3
ENDMDL
