MODEL 1
REMARK VINA RESULT:   -10.998      0.000      0.000
REMARK INTER + INTRA:         -20.067
REMARK INTER:                 -18.714
REMARK INTRA:                  -1.353
REMARK UNBOUND:                -1.353
REMARK  12 active torsions:
REMARK  status: ('A' for Active; 'I' for Inactive)
REMARK    1  A    between atoms: C_1  and  C_4 
REMARK    2  A    between atoms: C_5  and  C_9 
REMARK    3  A    between atoms: C_7  and  C_14 
REMARK    4  A    between atoms: C_9  and  C_10 
REMARK    5  A    between atoms: C_10  and  C_11 
REMARK    6  A    between atoms: C_14  and  C_17 
REMARK    7  A    between atoms: C_19  and  C_23 
REMARK    8  A    between atoms: C_29  and  C_33 
REMARK    9  A    between atoms: C_35  and  C_38 
REMARK   10  A    between atoms: C_40  and  C_43 
REMARK   11  A    between atoms: C_43  and  C_44 
REMARK   12  A    between atoms: C_44  and  C_45 
ROOT
HETATM    1  C   UNL     1      -8.644 -21.473 -21.335  1.00  0.00     0.060 C 
HETATM    2  N   UNL     1      -6.639 -21.624 -19.847  1.00  0.00    -0.355 N 
ATOM      3  HN  UNL     1      -6.599 -22.631 -19.685  1.00  0.00     0.166 HD
HETATM    4  C   UNL     1      -5.712 -20.653 -19.309  1.00  0.00     0.041 A 
HETATM    5  C   UNL     1      -6.123 -19.328 -19.743  1.00  0.00    -0.027 A 
HETATM    6  C   UNL     1      -7.309 -19.472 -20.557  1.00  0.00    -0.023 A 
HETATM    7  C   UNL     1      -7.655 -20.932 -20.667  1.00  0.00     0.041 A 
HETATM    8  C   UNL     1      -5.434 -18.036 -19.375  1.00  0.00     0.051 C 
ENDROOT
BRANCH   1   9
HETATM    9  C   UNL     1      -8.719 -22.958 -21.546  1.00  0.00     0.041 A 
HETATM   10  N   UNL     1      -7.996 -23.858 -20.855  1.00  0.00    -0.355 N 
HETATM   11  C   UNL     1      -8.327 -25.076 -21.317  1.00  0.00     0.041 A 
ATOM     12  HN  UNL     1      -7.322 -23.654 -20.117  1.00  0.00     0.166 HD
HETATM   13  C   UNL     1      -9.284 -24.939 -22.297  1.00  0.00    -0.027 A 
HETATM   14  C   UNL     1      -9.523 -23.619 -22.453  1.00  0.00    -0.023 A 
HETATM   15  C   UNL     1      -9.925 -26.089 -23.076  1.00  0.00     0.051 C 
BRANCH  11  16
HETATM   16  C   UNL     1      -7.816 -26.384 -20.791  1.00  0.00     0.060 C 
BRANCH  16  17
HETATM   17  C   UNL     1      -6.562 -26.665 -20.624  1.00  0.00     0.044 A 
HETATM   18  N   UNL     1      -5.456 -25.743 -20.212  1.00  0.00    -0.322 N 
HETATM   19  C   UNL     1      -4.172 -26.520 -20.222  1.00  0.00     0.256 A 
ATOM     20  HN  UNL     1      -5.558 -24.758 -19.968  1.00  0.00     0.169 HD
HETATM   21  O   UNL     1      -3.119 -26.052 -19.954  1.00  0.00    -0.267 OA
HETATM   22  C   UNL     1      -4.558 -27.908 -20.607  1.00  0.00     0.039 A 
HETATM   23  C   UNL     1      -5.936 -27.973 -20.842  1.00  0.00    -0.019 A 
HETATM   24  C   UNL     1      -6.711 -29.207 -21.245  1.00  0.00     0.052 C 
BRANCH  22  25
HETATM   25  C   UNL     1      -3.593 -29.068 -20.753  1.00  0.00     0.007 C 
HETATM   26  C   UNL     1      -3.014 -29.599 -19.708  1.00  0.00     0.012 C 
ENDBRANCH  22  25
ENDBRANCH  16  17
ENDBRANCH  11  16
BRANCH  14  27
HETATM   27  C   UNL     1     -10.500 -22.969 -23.435  1.00  0.00     0.052 C 
BRANCH  27  28
HETATM   28  C   UNL     1      -9.897 -22.917 -24.832  1.00  0.00     0.118 C 
BRANCH  28  29
HETATM   29  C   UNL     1      -9.094 -21.630 -25.044  1.00  0.00     0.172 C 
HETATM   30  O   UNL     1      -9.701 -20.538 -25.184  1.00  0.00    -0.648 OA
HETATM   31  O   UNL     1      -7.838 -21.642 -25.083  1.00  0.00    -0.648 OA
ENDBRANCH  28  29
ENDBRANCH  27  28
ENDBRANCH  14  27
ENDBRANCH   1   9
BRANCH   6  32
HETATM   32  C   UNL     1      -8.090 -18.371 -21.233  1.00  0.00     0.052 C 
BRANCH  32  33
HETATM   33  C   UNL     1      -8.204 -18.641 -22.736  1.00  0.00     0.118 C 
BRANCH  33  34
HETATM   34  C   UNL     1      -6.960 -18.202 -23.506  1.00  0.00     0.172 C 
HETATM   35  O   UNL     1      -6.841 -17.000 -23.869  1.00  0.00    -0.648 OA
HETATM   36  O   UNL     1      -6.061 -19.032 -23.788  1.00  0.00    -0.648 OA
ENDBRANCH  33  34
ENDBRANCH  32  33
ENDBRANCH   6  32
BRANCH   4  37
HETATM   37  C   UNL     1      -4.522 -20.976 -18.468  1.00  0.00     0.060 C 
HETATM   38  C   UNL     1      -4.360 -22.168 -17.994  1.00  0.00     0.048 A 
HETATM   39  N   UNL     1      -5.409 -23.247 -17.960  1.00  0.00    -0.322 N 
HETATM   40  C   UNL     1      -3.141 -22.771 -17.419  1.00  0.00     0.001 A 
HETATM   41  C   UNL     1      -4.805 -24.464 -17.328  1.00  0.00     0.252 A 
ATOM     42  HN  UNL     1      -6.365 -23.164 -18.306  1.00  0.00     0.169 HD
HETATM   43  O   UNL     1      -5.392 -25.464 -17.153  1.00  0.00    -0.268 OA
HETATM   44  C   UNL     1      -3.399 -24.105 -17.043  1.00  0.00     0.018 A 
HETATM   45  C   UNL     1      -2.387 -25.044 -16.413  1.00  0.00     0.055 C 
BRANCH  40  46
HETATM   46  C   UNL     1      -1.769 -22.114 -17.280  1.00  0.00     0.004 C 
HETATM   47  C   UNL     1      -1.622 -20.850 -16.992  1.00  0.00     0.012 C 
ENDBRANCH  40  46
ENDBRANCH   4  37
TORSDOF 12
ENDMDL
MODEL 2
REMARK VINA RESULT:   -10.600      1.255      1.599
REMARK INTER + INTRA:         -19.389
REMARK INTER:                 -17.817
REMARK INTRA:                  -1.571
REMARK UNBOUND:                -1.353
REMARK  12 active torsions:
REMARK  status: ('A' for Active; 'I' for Inactive)
REMARK    1  A    between atoms: C_1  and  C_4 
REMARK    2  A    between atoms: C_5  and  C_9 
REMARK    3  A    between atoms: C_7  and  C_14 
REMARK    4  A    between atoms: C_9  and  C_10 
REMARK    5  A    between atoms: C_10  and  C_11 
REMARK    6  A    between atoms: C_14  and  C_17 
REMARK    7  A    between atoms: C_19  and  C_23 
REMARK    8  A    between atoms: C_29  and  C_33 
REMARK    9  A    between atoms: C_35  and  C_38 
REMARK   10  A    between atoms: C_40  and  C_43 
REMARK   11  A    between atoms: C_43  and  C_44 
REMARK   12  A    between atoms: C_44  and  C_45 
ROOT
HETATM    1  C   UNL     1      -8.653 -21.550 -21.340  1.00  0.00     0.060 C 
HETATM    2  N   UNL     1      -6.658 -21.675 -19.836  1.00  0.00    -0.355 N 
ATOM      3  HN  UNL     1      -6.623 -22.677 -19.652  1.00  0.00     0.166 HD
HETATM    4  C   UNL     1      -5.730 -20.695 -19.315  1.00  0.00     0.041 A 
HETATM    5  C   UNL     1      -6.134 -19.378 -19.781  1.00  0.00    -0.027 A 
HETATM    6  C   UNL     1      -7.316 -19.537 -20.599  1.00  0.00    -0.023 A 
HETATM    7  C   UNL     1      -7.666 -20.997 -20.679  1.00  0.00     0.041 A 
HETATM    8  C   UNL     1      -5.442 -18.081 -19.437  1.00  0.00     0.051 C 
ENDROOT
BRANCH   1   9
HETATM    9  C   UNL     1      -8.732 -23.039 -21.519  1.00  0.00     0.041 A 
HETATM   10  N   UNL     1      -7.992 -23.924 -20.826  1.00  0.00    -0.355 N 
HETATM   11  C   UNL     1      -8.333 -25.151 -21.255  1.00  0.00     0.041 A 
ATOM     12  HN  UNL     1      -7.301 -23.705 -20.109  1.00  0.00     0.166 HD
HETATM   13  C   UNL     1      -9.314 -25.035 -22.215  1.00  0.00    -0.027 A 
HETATM   14  C   UNL     1      -9.557 -23.719 -22.392  1.00  0.00    -0.023 A 
HETATM   15  C   UNL     1      -9.972 -26.201 -22.954  1.00  0.00     0.051 C 
BRANCH  11  16
HETATM   16  C   UNL     1      -7.809 -26.448 -20.715  1.00  0.00     0.060 C 
BRANCH  16  17
HETATM   17  C   UNL     1      -6.550 -26.726 -20.575  1.00  0.00     0.044 A 
HETATM   18  N   UNL     1      -5.442 -25.808 -20.166  1.00  0.00    -0.322 N 
HETATM   19  C   UNL     1      -4.155 -26.579 -20.212  1.00  0.00     0.256 A 
ATOM     20  HN  UNL     1      -5.543 -24.828 -19.901  1.00  0.00     0.169 HD
HETATM   21  O   UNL     1      -3.099 -26.110 -19.954  1.00  0.00    -0.267 OA
HETATM   22  C   UNL     1      -4.541 -27.960 -20.617  1.00  0.00     0.039 A 
HETATM   23  C   UNL     1      -5.923 -28.027 -20.829  1.00  0.00    -0.019 A 
HETATM   24  C   UNL     1      -6.701 -29.257 -21.241  1.00  0.00     0.052 C 
BRANCH  22  25
HETATM   25  C   UNL     1      -3.575 -29.113 -20.802  1.00  0.00     0.007 C 
HETATM   26  C   UNL     1      -3.070 -29.742 -19.772  1.00  0.00     0.012 C 
ENDBRANCH  22  25
ENDBRANCH  16  17
ENDBRANCH  11  16
BRANCH  14  27
HETATM   27  C   UNL     1     -10.558 -23.090 -23.363  1.00  0.00     0.052 C 
BRANCH  27  28
HETATM   28  C   UNL     1     -11.973 -23.188 -22.812  1.00  0.00     0.118 C 
BRANCH  28  29
HETATM   29  C   UNL     1     -12.257 -22.071 -21.803  1.00  0.00     0.172 C 
HETATM   30  O   UNL     1     -12.410 -22.358 -20.588  1.00  0.00    -0.648 OA
HETATM   31  O   UNL     1     -12.341 -20.870 -22.162  1.00  0.00    -0.648 OA
ENDBRANCH  28  29
ENDBRANCH  27  28
ENDBRANCH  14  27
ENDBRANCH   1   9
BRANCH   6  32
HETATM   32  C   UNL     1      -8.088 -18.448 -21.305  1.00  0.00     0.052 C 
BRANCH  32  33
HETATM   33  C   UNL     1      -7.355 -18.009 -22.575  1.00  0.00     0.118 C 
BRANCH  33  34
HETATM   34  C   UNL     1      -7.860 -18.732 -23.821  1.00  0.00     0.172 C 
HETATM   35  O   UNL     1      -7.410 -19.875 -24.106  1.00  0.00    -0.648 OA
HETATM   36  O   UNL     1      -8.713 -18.192 -24.569  1.00  0.00    -0.648 OA
ENDBRANCH  33  34
ENDBRANCH  32  33
ENDBRANCH   6  32
BRANCH   4  37
HETATM   37  C   UNL     1      -4.547 -21.003 -18.460  1.00  0.00     0.060 C 
HETATM   38  C   UNL     1      -4.375 -22.193 -17.986  1.00  0.00     0.048 A 
HETATM   39  N   UNL     1      -5.409 -23.286 -17.967  1.00  0.00    -0.322 N 
HETATM   40  C   UNL     1      -3.155 -22.781 -17.397  1.00  0.00     0.001 A 
HETATM   41  C   UNL     1      -4.796 -24.496 -17.329  1.00  0.00     0.252 A 
ATOM     42  HN  UNL     1      -6.362 -23.217 -18.325  1.00  0.00     0.169 HD
HETATM   43  O   UNL     1      -5.371 -25.505 -17.164  1.00  0.00    -0.268 OA
HETATM   44  C   UNL     1      -3.398 -24.119 -17.026  1.00  0.00     0.018 A 
HETATM   45  C   UNL     1      -2.382 -25.045 -16.385  1.00  0.00     0.055 C 
BRANCH  40  46
HETATM   46  C   UNL     1      -1.794 -22.105 -17.239  1.00  0.00     0.004 C 
HETATM   47  C   UNL     1      -1.661 -20.893 -16.776  1.00  0.00     0.012 C 
ENDBRANCH  40  46
ENDBRANCH   4  37
TORSDOF 12
ENDMDL
MODEL 3
REMARK VINA RESULT:   -10.171      1.258      5.853
REMARK INTER + INTRA:         -18.659
REMARK INTER:                 -16.377
REMARK INTRA:                  -2.282
REMARK UNBOUND:                -1.353
REMARK  12 active torsions:
REMARK  status: ('A' for Active; 'I' for Inactive)
REMARK    1  A    between atoms: C_1  and  C_4 
REMARK    2  A    between atoms: C_5  and  C_9 
REMARK    3  A    between atoms: C_7  and  C_14 
REMARK    4  A    between atoms: C_9  and  C_10 
REMARK    5  A    between atoms: C_10  and  C_11 
REMARK    6  A    between atoms: C_14  and  C_17 
REMARK    7  A    between atoms: C_19  and  C_23 
REMARK    8  A    between atoms: C_29  and  C_33 
REMARK    9  A    between atoms: C_35  and  C_38 
REMARK   10  A    between atoms: C_40  and  C_43 
REMARK   11  A    between atoms: C_43  and  C_44 
REMARK   12  A    between atoms: C_44  and  C_45 
ROOT
HETATM    1  C   UNL     1      -8.522 -21.389 -21.120  1.00  0.00     0.060 C 
HETATM    2  N   UNL     1      -7.535 -23.683 -21.259  1.00  0.00    -0.355 N 
ATOM      3  HN  UNL     1      -6.580 -23.497 -20.952  1.00  0.00     0.166 HD
HETATM    4  C   UNL     1      -8.056 -24.980 -21.633  1.00  0.00     0.041 A 
HETATM    5  C   UNL     1      -9.444 -24.824 -22.036  1.00  0.00    -0.027 A 
HETATM    6  C   UNL     1      -9.792 -23.426 -21.910  1.00  0.00    -0.023 A 
HETATM    7  C   UNL     1      -8.602 -22.669 -21.389  1.00  0.00     0.041 A 
HETATM    8  C   UNL     1     -10.340 -25.937 -22.526  1.00  0.00     0.051 C 
ENDROOT
BRANCH   1   9
HETATM    9  C   UNL     1      -7.344 -20.822 -20.380  1.00  0.00     0.041 A 
HETATM   10  N   UNL     1      -6.661 -21.481 -19.426  1.00  0.00    -0.355 N 
HETATM   11  C   UNL     1      -5.684 -20.664 -18.998  1.00  0.00     0.041 A 
ATOM     12  HN  UNL     1      -6.850 -22.425 -19.090  1.00  0.00     0.166 HD
HETATM   13  C   UNL     1      -5.742 -19.484 -19.707  1.00  0.00    -0.027 A 
HETATM   14  C   UNL     1      -6.784 -19.574 -20.562  1.00  0.00    -0.023 A 
HETATM   15  C   UNL     1      -4.803 -18.292 -19.521  1.00  0.00     0.051 C 
BRANCH  11  16
HETATM   16  C   UNL     1      -4.634 -21.005 -17.983  1.00  0.00     0.060 C 
BRANCH  16  17
HETATM   17  C   UNL     1      -3.800 -21.990 -18.098  1.00  0.00     0.044 A 
HETATM   18  N   UNL     1      -4.040 -23.336 -18.708  1.00  0.00    -0.322 N 
HETATM   19  C   UNL     1      -2.791 -24.152 -18.545  1.00  0.00     0.256 A 
ATOM     20  HN  UNL     1      -4.902 -23.645 -19.157  1.00  0.00     0.169 HD
HETATM   21  O   UNL     1      -2.684 -25.271 -18.917  1.00  0.00    -0.267 OA
HETATM   22  C   UNL     1      -1.819 -23.248 -17.867  1.00  0.00     0.039 A 
HETATM   23  C   UNL     1      -2.417 -22.009 -17.611  1.00  0.00    -0.019 A 
HETATM   24  C   UNL     1      -1.756 -20.823 -16.945  1.00  0.00     0.052 C 
BRANCH  22  25
HETATM   25  C   UNL     1      -0.402 -23.626 -17.485  1.00  0.00     0.007 C 
HETATM   26  C   UNL     1      -0.169 -24.492 -16.533  1.00  0.00     0.012 C 
ENDBRANCH  22  25
ENDBRANCH  16  17
ENDBRANCH  11  16
BRANCH  14  27
HETATM   27  C   UNL     1      -7.257 -18.507 -21.552  1.00  0.00     0.052 C 
BRANCH  27  28
HETATM   28  C   UNL     1      -6.355 -18.478 -22.778  1.00  0.00     0.118 C 
BRANCH  28  29
HETATM   29  C   UNL     1      -7.126 -18.855 -24.046  1.00  0.00     0.172 C 
HETATM   30  O   UNL     1      -7.064 -20.033 -24.481  1.00  0.00    -0.648 OA
HETATM   31  O   UNL     1      -7.820 -18.010 -24.666  1.00  0.00    -0.648 OA
ENDBRANCH  28  29
ENDBRANCH  27  28
ENDBRANCH  14  27
ENDBRANCH   1   9
BRANCH   6  32
HETATM   32  C   UNL     1     -11.128 -22.790 -22.209  1.00  0.00     0.052 C 
BRANCH  32  33
HETATM   33  C   UNL     1     -11.350 -22.696 -23.721  1.00  0.00     0.118 C 
BRANCH  33  34
HETATM   34  C   UNL     1     -10.468 -21.635 -24.377  1.00  0.00     0.172 C 
HETATM   35  O   UNL     1     -10.631 -20.419 -24.086  1.00  0.00    -0.648 OA
HETATM   36  O   UNL     1      -9.589 -21.966 -25.211  1.00  0.00    -0.648 OA
ENDBRANCH  33  34
ENDBRANCH  32  33
ENDBRANCH   6  32
BRANCH   4  37
HETATM   37  C   UNL     1      -7.289 -26.259 -21.587  1.00  0.00     0.060 C 
HETATM   38  C   UNL     1      -6.665 -26.610 -20.511  1.00  0.00     0.048 A 
HETATM   39  N   UNL     1      -6.381 -25.717 -19.333  1.00  0.00    -0.322 N 
HETATM   40  C   UNL     1      -6.123 -27.936 -20.152  1.00  0.00     0.001 A 
HETATM   41  C   UNL     1      -5.639 -26.519 -18.308  1.00  0.00     0.252 A 
ATOM     42  HN  UNL     1      -6.647 -24.736 -19.246  1.00  0.00     0.169 HD
HETATM   43  O   UNL     1      -5.269 -26.084 -17.284  1.00  0.00    -0.268 OA
HETATM   44  C   UNL     1      -5.537 -27.883 -18.871  1.00  0.00     0.018 A 
HETATM   45  C   UNL     1      -4.874 -29.053 -18.167  1.00  0.00     0.055 C 
BRANCH  40  46
HETATM   46  C   UNL     1      -6.205 -29.216 -20.982  1.00  0.00     0.004 C 
HETATM   47  C   UNL     1      -7.340 -29.737 -21.358  1.00  0.00     0.012 C 
ENDBRANCH  40  46
ENDBRANCH   4  37
TORSDOF 12
ENDMDL
MODEL 4
REMARK VINA RESULT:    -9.187      3.736      8.159
REMARK INTER + INTRA:         -16.985
REMARK INTER:                 -15.218
REMARK INTRA:                  -1.767
REMARK UNBOUND:                -1.353
REMARK  12 active torsions:
REMARK  status: ('A' for Active; 'I' for Inactive)
REMARK    1  A    between atoms: C_1  and  C_4 
REMARK    2  A    between atoms: C_5  and  C_9 
REMARK    3  A    between atoms: C_7  and  C_14 
REMARK    4  A    between atoms: C_9  and  C_10 
REMARK    5  A    between atoms: C_10  and  C_11 
REMARK    6  A    between atoms: C_14  and  C_17 
REMARK    7  A    between atoms: C_19  and  C_23 
REMARK    8  A    between atoms: C_29  and  C_33 
REMARK    9  A    between atoms: C_35  and  C_38 
REMARK   10  A    between atoms: C_40  and  C_43 
REMARK   11  A    between atoms: C_43  and  C_44 
REMARK   12  A    between atoms: C_44  and  C_45 
ROOT
HETATM    1  C   UNL     1      -8.549 -20.033 -22.011  1.00  0.00     0.060 C 
HETATM    2  N   UNL     1      -9.371 -17.672 -21.919  1.00  0.00    -0.355 N 
ATOM      3  HN  UNL     1      -8.741 -17.279 -21.219  1.00  0.00     0.166 HD
HETATM    4  C   UNL     1     -10.411 -16.943 -22.610  1.00  0.00     0.041 A 
HETATM    5  C   UNL     1     -11.105 -17.857 -23.503  1.00  0.00    -0.027 A 
HETATM    6  C   UNL     1     -10.493 -19.161 -23.372  1.00  0.00    -0.023 A 
HETATM    7  C   UNL     1      -9.361 -19.074 -22.386  1.00  0.00     0.041 A 
HETATM    8  C   UNL     1     -12.276 -17.495 -24.384  1.00  0.00     0.051 C 
ENDROOT
BRANCH   1   9
HETATM    9  C   UNL     1      -7.319 -19.738 -21.201  1.00  0.00     0.041 A 
HETATM   10  N   UNL     1      -6.993 -20.374 -20.062  1.00  0.00    -0.355 N 
HETATM   11  C   UNL     1      -5.837 -19.845 -19.625  1.00  0.00     0.041 A 
ATOM     12  HN  UNL     1      -7.523 -21.120 -19.612  1.00  0.00     0.166 HD
HETATM   13  C   UNL     1      -5.423 -18.877 -20.514  1.00  0.00    -0.027 A 
HETATM   14  C   UNL     1      -6.350 -18.798 -21.492  1.00  0.00    -0.023 A 
HETATM   15  C   UNL     1      -4.152 -18.037 -20.379  1.00  0.00     0.051 C 
BRANCH  11  16
HETATM   16  C   UNL     1      -5.064 -20.293 -18.421  1.00  0.00     0.060 C 
BRANCH  16  17
HETATM   17  C   UNL     1      -4.579 -21.485 -18.267  1.00  0.00     0.044 A 
HETATM   18  N   UNL     1      -5.237 -22.796 -18.566  1.00  0.00    -0.322 N 
HETATM   19  C   UNL     1      -4.299 -23.894 -18.159  1.00  0.00     0.256 A 
ATOM     20  HN  UNL     1      -6.163 -22.921 -18.976  1.00  0.00     0.169 HD
HETATM   21  O   UNL     1      -4.553 -25.046 -18.261  1.00  0.00    -0.267 OA
HETATM   22  C   UNL     1      -3.079 -23.200 -17.657  1.00  0.00     0.039 A 
HETATM   23  C   UNL     1      -3.259 -21.814 -17.719  1.00  0.00    -0.019 A 
HETATM   24  C   UNL     1      -2.247 -20.767 -17.309  1.00  0.00     0.052 C 
BRANCH  22  25
HETATM   25  C   UNL     1      -1.841 -23.895 -17.128  1.00  0.00     0.007 C 
HETATM   26  C   UNL     1      -1.743 -24.232 -15.868  1.00  0.00     0.012 C 
ENDBRANCH  22  25
ENDBRANCH  16  17
ENDBRANCH  11  16
BRANCH  14  27
HETATM   27  C   UNL     1      -6.338 -17.858 -22.699  1.00  0.00     0.052 C 
BRANCH  27  28
HETATM   28  C   UNL     1      -5.958 -18.616 -23.963  1.00  0.00     0.118 C 
BRANCH  28  29
HETATM   29  C   UNL     1      -4.697 -18.031 -24.606  1.00  0.00     0.172 C 
HETATM   30  O   UNL     1      -3.732 -18.791 -24.879  1.00  0.00    -0.648 OA
HETATM   31  O   UNL     1      -4.603 -16.806 -24.866  1.00  0.00    -0.648 OA
ENDBRANCH  28  29
ENDBRANCH  27  28
ENDBRANCH  14  27
ENDBRANCH   1   9
BRANCH   6  32
HETATM   32  C   UNL     1     -10.872 -20.423 -24.107  1.00  0.00     0.052 C 
BRANCH  32  33
HETATM   33  C   UNL     1     -10.268 -20.425 -25.514  1.00  0.00     0.118 C 
BRANCH  33  34
HETATM   34  C   UNL     1      -8.819 -20.909 -25.528  1.00  0.00     0.172 C 
HETATM   35  O   UNL     1      -7.998 -20.399 -26.339  1.00  0.00    -0.648 OA
HETATM   36  O   UNL     1      -8.444 -21.817 -24.745  1.00  0.00    -0.648 OA
ENDBRANCH  33  34
ENDBRANCH  32  33
ENDBRANCH   6  32
BRANCH   4  37
HETATM   37  C   UNL     1     -10.699 -15.489 -22.439  1.00  0.00     0.060 C 
HETATM   38  C   UNL     1     -11.571 -15.092 -21.571  1.00  0.00     0.048 A 
HETATM   39  N   UNL     1     -12.572 -15.971 -20.871  1.00  0.00    -0.322 N 
HETATM   40  C   UNL     1     -11.781 -13.733 -21.032  1.00  0.00     0.001 A 
HETATM   41  C   UNL     1     -13.387 -15.110 -19.954  1.00  0.00     0.252 A 
ATOM     42  HN  UNL     1     -12.678 -16.978 -20.998  1.00  0.00     0.169 HD
HETATM   43  O   UNL     1     -14.259 -15.518 -19.284  1.00  0.00    -0.268 OA
HETATM   44  C   UNL     1     -12.827 -13.748 -20.088  1.00  0.00     0.018 A 
HETATM   45  C   UNL     1     -13.330 -12.537 -19.325  1.00  0.00     0.055 C 
BRANCH  40  46
HETATM   46  C   UNL     1     -10.978 -12.478 -21.371  1.00  0.00     0.004 C 
HETATM   47  C   UNL     1     -11.313 -11.670 -22.339  1.00  0.00     0.012 C 
ENDBRANCH  40  46
ENDBRANCH   4  37
TORSDOF 12
ENDMDL
MODEL 5
REMARK VINA RESULT:    -9.159      5.275      9.662
REMARK INTER + INTRA:         -16.937
REMARK INTER:                 -13.992
REMARK INTRA:                  -2.944
REMARK UNBOUND:                -1.353
REMARK  12 active torsions:
REMARK  status: ('A' for Active; 'I' for Inactive)
REMARK    1  A    between atoms: C_1  and  C_4 
REMARK    2  A    between atoms: C_5  and  C_9 
REMARK    3  A    between atoms: C_7  and  C_14 
REMARK    4  A    between atoms: C_9  and  C_10 
REMARK    5  A    between atoms: C_10  and  C_11 
REMARK    6  A    between atoms: C_14  and  C_17 
REMARK    7  A    between atoms: C_19  and  C_23 
REMARK    8  A    between atoms: C_29  and  C_33 
REMARK    9  A    between atoms: C_35  and  C_38 
REMARK   10  A    between atoms: C_40  and  C_43 
REMARK   11  A    between atoms: C_43  and  C_44 
REMARK   12  A    between atoms: C_44  and  C_45 
ROOT
HETATM    1  C   UNL     1      -6.469 -17.920 -23.344  1.00  0.00     0.060 C 
HETATM    2  N   UNL     1      -7.622 -19.430 -24.972  1.00  0.00    -0.355 N 
ATOM      3  HN  UNL     1      -7.209 -19.113 -25.850  1.00  0.00     0.166 HD
HETATM    4  C   UNL     1      -8.596 -20.491 -24.841  1.00  0.00     0.041 A 
HETATM    5  C   UNL     1      -8.957 -20.621 -23.438  1.00  0.00    -0.027 A 
HETATM    6  C   UNL     1      -8.203 -19.639 -22.691  1.00  0.00    -0.023 A 
HETATM    7  C   UNL     1      -7.318 -18.876 -23.636  1.00  0.00     0.041 A 
HETATM    8  C   UNL     1      -9.966 -21.597 -22.884  1.00  0.00     0.051 C 
ENDROOT
BRANCH   1   9
HETATM    9  C   UNL     1      -5.482 -17.420 -24.361  1.00  0.00     0.041 A 
HETATM   10  N   UNL     1      -4.455 -18.145 -24.840  1.00  0.00    -0.355 N 
HETATM   11  C   UNL     1      -3.797 -17.372 -25.721  1.00  0.00     0.041 A 
ATOM     12  HN  UNL     1      -4.219 -19.103 -24.582  1.00  0.00     0.166 HD
HETATM   13  C   UNL     1      -4.432 -16.154 -25.811  1.00  0.00    -0.027 A 
HETATM   14  C   UNL     1      -5.477 -16.174 -24.955  1.00  0.00    -0.023 A 
HETATM   15  C   UNL     1      -3.997 -14.992 -26.705  1.00  0.00     0.051 C 
BRANCH  11  16
HETATM   16  C   UNL     1      -2.621 -17.791 -26.551  1.00  0.00     0.060 C 
BRANCH  16  17
HETATM   17  C   UNL     1      -1.786 -18.725 -26.216  1.00  0.00     0.044 A 
HETATM   18  N   UNL     1      -1.590 -20.063 -26.857  1.00  0.00    -0.322 N 
HETATM   19  C   UNL     1      -0.555 -20.812 -26.070  1.00  0.00     0.256 A 
ATOM     20  HN  UNL     1      -2.076 -20.406 -27.686  1.00  0.00     0.169 HD
HETATM   21  O   UNL     1      -0.200 -21.911 -26.330  1.00  0.00    -0.267 OA
HETATM   22  C   UNL     1      -0.131 -19.875 -24.991  1.00  0.00     0.039 A 
HETATM   23  C   UNL     1      -0.854 -18.680 -25.084  1.00  0.00    -0.019 A 
HETATM   24  C   UNL     1      -0.708 -17.479 -24.176  1.00  0.00     0.052 C 
BRANCH  22  25
HETATM   25  C   UNL     1       0.907 -20.184 -23.931  1.00  0.00     0.007 C 
HETATM   26  C   UNL     1       1.919 -20.972 -24.188  1.00  0.00     0.012 C 
ENDBRANCH  22  25
ENDBRANCH  16  17
ENDBRANCH  11  16
BRANCH  14  27
HETATM   27  C   UNL     1      -6.474 -15.043 -24.691  1.00  0.00     0.052 C 
BRANCH  27  28
HETATM   28  C   UNL     1      -7.640 -15.121 -25.667  1.00  0.00     0.118 C 
BRANCH  28  29
HETATM   29  C   UNL     1      -8.884 -15.716 -25.002  1.00  0.00     0.172 C 
HETATM   30  O   UNL     1      -9.321 -16.830 -25.390  1.00  0.00    -0.648 OA
HETATM   31  O   UNL     1      -9.482 -15.114 -24.075  1.00  0.00    -0.648 OA
ENDBRANCH  28  29
ENDBRANCH  27  28
ENDBRANCH  14  27
ENDBRANCH   1   9
BRANCH   6  32
HETATM   32  C   UNL     1      -8.241 -19.404 -21.200  1.00  0.00     0.052 C 
BRANCH  32  33
HETATM   33  C   UNL     1      -7.111 -20.170 -20.508  1.00  0.00     0.118 C 
BRANCH  33  34
HETATM   34  C   UNL     1      -6.133 -19.244 -19.786  1.00  0.00     0.172 C 
HETATM   35  O   UNL     1      -5.099 -19.725 -19.247  1.00  0.00    -0.648 OA
HETATM   36  O   UNL     1      -6.359 -18.010 -19.717  1.00  0.00    -0.648 OA
ENDBRANCH  33  34
ENDBRANCH  32  33
ENDBRANCH   6  32
BRANCH   4  37
HETATM   37  C   UNL     1      -9.118 -21.321 -25.966  1.00  0.00     0.060 C 
HETATM   38  C   UNL     1      -9.738 -20.766 -26.955  1.00  0.00     0.048 A 
HETATM   39  N   UNL     1     -10.259 -19.354 -26.981  1.00  0.00    -0.322 N 
HETATM   40  C   UNL     1     -10.053 -21.336 -28.281  1.00  0.00     0.001 A 
HETATM   41  C   UNL     1     -10.910 -19.122 -28.310  1.00  0.00     0.252 A 
ATOM     42  HN  UNL     1     -10.183 -18.673 -26.225  1.00  0.00     0.169 HD
HETATM   43  O   UNL     1     -11.421 -18.112 -28.616  1.00  0.00    -0.268 OA
HETATM   44  C   UNL     1     -10.723 -20.379 -29.068  1.00  0.00     0.018 A 
HETATM   45  C   UNL     1     -11.208 -20.602 -30.488  1.00  0.00     0.055 C 
BRANCH  40  46
HETATM   46  C   UNL     1      -9.682 -22.728 -28.792  1.00  0.00     0.004 C 
HETATM   47  C   UNL     1     -10.501 -23.741 -28.727  1.00  0.00     0.012 C 
ENDBRANCH  40  46
ENDBRANCH   4  37
TORSDOF 12
ENDMDL
MODEL 6
REMARK VINA RESULT:    -9.134      4.220      7.909
REMARK INTER + INTRA:         -16.894
REMARK INTER:                 -15.230
REMARK INTRA:                  -1.664
REMARK UNBOUND:                -1.353
REMARK  12 active torsions:
REMARK  status: ('A' for Active; 'I' for Inactive)
REMARK    1  A    between atoms: C_1  and  C_4 
REMARK    2  A    between atoms: C_5  and  C_9 
REMARK    3  A    between atoms: C_7  and  C_14 
REMARK    4  A    between atoms: C_9  and  C_10 
REMARK    5  A    between atoms: C_10  and  C_11 
REMARK    6  A    between atoms: C_14  and  C_17 
REMARK    7  A    between atoms: C_19  and  C_23 
REMARK    8  A    between atoms: C_29  and  C_33 
REMARK    9  A    between atoms: C_35  and  C_38 
REMARK   10  A    between atoms: C_40  and  C_43 
REMARK   11  A    between atoms: C_43  and  C_44 
REMARK   12  A    between atoms: C_44  and  C_45 
ROOT
HETATM    1  C   UNL     1      -4.325 -25.007 -17.401  1.00  0.00     0.060 C 
HETATM    2  N   UNL     1      -6.058 -23.998 -18.897  1.00  0.00    -0.355 N 
ATOM      3  HN  UNL     1      -6.580 -24.831 -19.171  1.00  0.00     0.166 HD
HETATM    4  C   UNL     1      -6.356 -22.647 -19.321  1.00  0.00     0.041 A 
HETATM    5  C   UNL     1      -5.370 -21.750 -18.740  1.00  0.00    -0.027 A 
HETATM    6  C   UNL     1      -4.456 -22.543 -17.948  1.00  0.00    -0.023 A 
HETATM    7  C   UNL     1      -4.881 -23.984 -18.003  1.00  0.00     0.041 A 
HETATM    8  C   UNL     1      -5.312 -20.257 -18.961  1.00  0.00     0.051 C 
ENDROOT
BRANCH   1   9
HETATM    9  C   UNL     1      -5.004 -26.346 -17.359  1.00  0.00     0.041 A 
HETATM   10  N   UNL     1      -5.850 -26.735 -16.388  1.00  0.00    -0.355 N 
HETATM   11  C   UNL     1      -6.253 -27.982 -16.685  1.00  0.00     0.041 A 
ATOM     12  HN  UNL     1      -6.134 -26.186 -15.577  1.00  0.00     0.166 HD
HETATM   13  C   UNL     1      -5.667 -28.373 -17.869  1.00  0.00    -0.027 A 
HETATM   14  C   UNL     1      -4.877 -27.360 -18.286  1.00  0.00    -0.023 A 
HETATM   15  C   UNL     1      -5.867 -29.727 -18.552  1.00  0.00     0.051 C 
BRANCH  11  16
HETATM   16  C   UNL     1      -7.253 -28.791 -15.914  1.00  0.00     0.060 C 
BRANCH  16  17
HETATM   17  C   UNL     1      -6.943 -29.705 -15.049  1.00  0.00     0.044 A 
HETATM   18  N   UNL     1      -5.715 -30.559 -15.009  1.00  0.00    -0.322 N 
HETATM   19  C   UNL     1      -5.845 -31.512 -13.857  1.00  0.00     0.256 A 
ATOM     20  HN  UNL     1      -4.925 -30.503 -15.653  1.00  0.00     0.169 HD
HETATM   21  O   UNL     1      -5.031 -32.326 -13.582  1.00  0.00    -0.267 OA
HETATM   22  C   UNL     1      -7.145 -31.171 -13.213  1.00  0.00     0.039 A 
HETATM   23  C   UNL     1      -7.769 -30.133 -13.916  1.00  0.00    -0.019 A 
HETATM   24  C   UNL     1      -9.098 -29.500 -13.572  1.00  0.00     0.052 C 
BRANCH  22  25
HETATM   25  C   UNL     1      -7.720 -31.867 -11.996  1.00  0.00     0.007 C 
HETATM   26  C   UNL     1      -8.577 -32.847 -12.123  1.00  0.00     0.012 C 
ENDBRANCH  22  25
ENDBRANCH  16  17
ENDBRANCH  11  16
BRANCH  14  27
HETATM   27  C   UNL     1      -4.010 -27.328 -19.546  1.00  0.00     0.052 C 
BRANCH  27  28
HETATM   28  C   UNL     1      -2.549 -27.576 -19.196  1.00  0.00     0.118 C 
BRANCH  28  29
HETATM   29  C   UNL     1      -2.003 -28.808 -19.924  1.00  0.00     0.172 C 
HETATM   30  O   UNL     1      -0.872 -28.753 -20.471  1.00  0.00    -0.648 OA
HETATM   31  O   UNL     1      -2.662 -29.876 -19.989  1.00  0.00    -0.648 OA
ENDBRANCH  28  29
ENDBRANCH  27  28
ENDBRANCH  14  27
ENDBRANCH   1   9
BRANCH   6  32
HETATM   32  C   UNL     1      -3.274 -22.045 -17.152  1.00  0.00     0.052 C 
BRANCH  32  33
HETATM   33  C   UNL     1      -1.967 -22.577 -17.746  1.00  0.00     0.118 C 
BRANCH  33  34
HETATM   34  C   UNL     1      -1.262 -23.564 -16.817  1.00  0.00     0.172 C 
HETATM   35  O   UNL     1      -1.682 -23.722 -15.638  1.00  0.00    -0.648 OA
HETATM   36  O   UNL     1      -0.262 -24.211 -17.217  1.00  0.00    -0.648 OA
ENDBRANCH  33  34
ENDBRANCH  32  33
ENDBRANCH   6  32
BRANCH   4  37
HETATM   37  C   UNL     1      -7.501 -22.254 -20.193  1.00  0.00     0.060 C 
HETATM   38  C   UNL     1      -8.151 -23.149 -20.862  1.00  0.00     0.048 A 
HETATM   39  N   UNL     1      -7.703 -24.567 -21.092  1.00  0.00    -0.322 N 
HETATM   40  C   UNL     1      -9.468 -23.030 -21.520  1.00  0.00     0.001 A 
HETATM   41  C   UNL     1      -8.746 -25.257 -21.918  1.00  0.00     0.252 A 
ATOM     42  HN  UNL     1      -6.839 -24.986 -20.747  1.00  0.00     0.169 HD
HETATM   43  O   UNL     1      -8.664 -26.373 -22.268  1.00  0.00    -0.268 OA
HETATM   44  C   UNL     1      -9.815 -24.255 -22.122  1.00  0.00     0.018 A 
HETATM   45  C   UNL     1     -11.096 -24.516 -22.894  1.00  0.00     0.055 C 
BRANCH  40  46
HETATM   46  C   UNL     1     -10.381 -21.805 -21.530  1.00  0.00     0.004 C 
HETATM   47  C   UNL     1     -10.217 -20.813 -22.361  1.00  0.00     0.012 C 
ENDBRANCH  40  46
ENDBRANCH   4  37
TORSDOF 12
ENDMDL
MODEL 7
REMARK VINA RESULT:    -9.024      2.476      4.955
REMARK INTER + INTRA:         -16.707
REMARK INTER:                 -14.374
REMARK INTRA:                  -2.333
REMARK UNBOUND:                -1.353
REMARK  12 active torsions:
REMARK  status: ('A' for Active; 'I' for Inactive)
REMARK    1  A    between atoms: C_1  and  C_4 
REMARK    2  A    between atoms: C_5  and  C_9 
REMARK    3  A    between atoms: C_7  and  C_14 
REMARK    4  A    between atoms: C_9  and  C_10 
REMARK    5  A    between atoms: C_10  and  C_11 
REMARK    6  A    between atoms: C_14  and  C_17 
REMARK    7  A    between atoms: C_19  and  C_23 
REMARK    8  A    between atoms: C_29  and  C_33 
REMARK    9  A    between atoms: C_35  and  C_38 
REMARK   10  A    between atoms: C_40  and  C_43 
REMARK   11  A    between atoms: C_43  and  C_44 
REMARK   12  A    between atoms: C_44  and  C_45 
ROOT
HETATM    1  C   UNL     1      -6.849 -22.237 -19.324  1.00  0.00     0.060 C 
HETATM    2  N   UNL     1      -5.504 -24.343 -19.200  1.00  0.00    -0.355 N 
ATOM      3  HN  UNL     1      -6.081 -24.970 -19.761  1.00  0.00     0.166 HD
HETATM    4  C   UNL     1      -4.252 -24.699 -18.569  1.00  0.00     0.041 A 
HETATM    5  C   UNL     1      -3.754 -23.544 -17.840  1.00  0.00    -0.027 A 
HETATM    6  C   UNL     1      -4.695 -22.461 -18.021  1.00  0.00    -0.023 A 
HETATM    7  C   UNL     1      -5.816 -22.928 -18.908  1.00  0.00     0.041 A 
HETATM    8  C   UNL     1      -2.486 -23.510 -17.021  1.00  0.00     0.051 C 
ENDROOT
BRANCH   1   9
HETATM    9  C   UNL     1      -7.756 -22.767 -20.398  1.00  0.00     0.041 A 
HETATM   10  N   UNL     1      -7.881 -24.070 -20.709  1.00  0.00    -0.355 N 
HETATM   11  C   UNL     1      -8.774 -24.158 -21.709  1.00  0.00     0.041 A 
ATOM     12  HN  UNL     1      -7.389 -24.847 -20.267  1.00  0.00     0.166 HD
HETATM   13  C   UNL     1      -9.230 -22.896 -22.016  1.00  0.00    -0.027 A 
HETATM   14  C   UNL     1      -8.589 -22.023 -21.209  1.00  0.00    -0.023 A 
HETATM   15  C   UNL     1     -10.257 -22.564 -23.100  1.00  0.00     0.051 C 
BRANCH  11  16
HETATM   16  C   UNL     1      -9.274 -25.427 -22.332  1.00  0.00     0.060 C 
BRANCH  16  17
HETATM   17  C   UNL     1      -9.693 -26.454 -21.661  1.00  0.00     0.044 A 
HETATM   18  N   UNL     1     -11.107 -26.873 -21.402  1.00  0.00    -0.322 N 
HETATM   19  C   UNL     1     -11.080 -28.088 -20.522  1.00  0.00     0.256 A 
ATOM     20  HN  UNL     1     -11.943 -26.412 -21.761  1.00  0.00     0.169 HD
HETATM   21  O   UNL     1     -12.053 -28.639 -20.134  1.00  0.00    -0.267 OA
HETATM   22  C   UNL     1      -9.635 -28.385 -20.309  1.00  0.00     0.039 A 
HETATM   23  C   UNL     1      -8.850 -27.431 -20.965  1.00  0.00    -0.019 A 
HETATM   24  C   UNL     1      -7.338 -27.392 -20.995  1.00  0.00     0.052 C 
BRANCH  22  25
HETATM   25  C   UNL     1      -9.098 -29.532 -19.477  1.00  0.00     0.007 C 
HETATM   26  C   UNL     1      -8.772 -30.672 -20.031  1.00  0.00     0.012 C 
ENDBRANCH  22  25
ENDBRANCH  16  17
ENDBRANCH  11  16
BRANCH  14  27
HETATM   27  C   UNL     1      -8.751 -20.502 -21.184  1.00  0.00     0.052 C 
BRANCH  27  28
HETATM   28  C   UNL     1      -8.039 -19.869 -22.371  1.00  0.00     0.118 C 
BRANCH  28  29
HETATM   29  C   UNL     1      -7.688 -18.404 -22.094  1.00  0.00     0.172 C 
HETATM   30  O   UNL     1      -8.027 -17.882 -21.001  1.00  0.00    -0.648 OA
HETATM   31  O   UNL     1      -7.069 -17.708 -22.938  1.00  0.00    -0.648 OA
ENDBRANCH  28  29
ENDBRANCH  27  28
ENDBRANCH  14  27
ENDBRANCH   1   9
BRANCH   6  32
HETATM   32  C   UNL     1      -4.596 -21.065 -17.457  1.00  0.00     0.052 C 
BRANCH  32  33
HETATM   33  C   UNL     1      -3.722 -20.185 -18.356  1.00  0.00     0.118 C 
BRANCH  33  34
HETATM   34  C   UNL     1      -4.538 -19.164 -19.146  1.00  0.00     0.172 C 
HETATM   35  O   UNL     1      -3.961 -18.407 -19.973  1.00  0.00    -0.648 OA
HETATM   36  O   UNL     1      -5.778 -19.066 -18.969  1.00  0.00    -0.648 OA
ENDBRANCH  33  34
ENDBRANCH  32  33
ENDBRANCH   6  32
BRANCH   4  37
HETATM   37  C   UNL     1      -3.586 -26.030 -18.674  1.00  0.00     0.060 C 
HETATM   38  C   UNL     1      -4.239 -27.112 -18.404  1.00  0.00     0.048 A 
HETATM   39  N   UNL     1      -5.570 -27.180 -17.703  1.00  0.00    -0.322 N 
HETATM   40  C   UNL     1      -3.884 -28.508 -18.731  1.00  0.00     0.001 A 
HETATM   41  C   UNL     1      -5.965 -28.621 -17.592  1.00  0.00     0.252 A 
ATOM     42  HN  UNL     1      -6.109 -26.383 -17.362  1.00  0.00     0.169 HD
HETATM   43  O   UNL     1      -6.953 -28.986 -17.077  1.00  0.00    -0.268 OA
HETATM   44  C   UNL     1      -4.891 -29.379 -18.269  1.00  0.00     0.018 A 
HETATM   45  C   UNL     1      -4.874 -30.889 -18.420  1.00  0.00     0.055 C 
BRANCH  40  46
HETATM   46  C   UNL     1      -2.654 -28.985 -19.501  1.00  0.00     0.004 C 
HETATM   47  C   UNL     1      -2.588 -28.962 -20.804  1.00  0.00     0.012 C 
ENDBRANCH  40  46
ENDBRANCH   4  37
TORSDOF 12
ENDMDL
MODEL 8
REMARK VINA RESULT:    -9.023      1.965      6.521
REMARK INTER + INTRA:         -16.706
REMARK INTER:                 -15.527
REMARK INTRA:                  -1.179
REMARK UNBOUND:                -1.353
REMARK  12 active torsions:
REMARK  status: ('A' for Active; 'I' for Inactive)
REMARK    1  A    between atoms: C_1  and  C_4 
REMARK    2  A    between atoms: C_5  and  C_9 
REMARK    3  A    between atoms: C_7  and  C_14 
REMARK    4  A    between atoms: C_9  and  C_10 
REMARK    5  A    between atoms: C_10  and  C_11 
REMARK    6  A    between atoms: C_14  and  C_17 
REMARK    7  A    between atoms: C_19  and  C_23 
REMARK    8  A    between atoms: C_29  and  C_33 
REMARK    9  A    between atoms: C_35  and  C_38 
REMARK   10  A    between atoms: C_40  and  C_43 
REMARK   11  A    between atoms: C_43  and  C_44 
REMARK   12  A    between atoms: C_44  and  C_45 
ROOT
HETATM    1  C   UNL     1      -8.752 -22.375 -21.453  1.00  0.00     0.060 C 
HETATM    2  N   UNL     1      -7.335 -24.425 -21.231  1.00  0.00    -0.355 N 
ATOM      3  HN  UNL     1      -6.460 -24.016 -20.901  1.00  0.00     0.166 HD
HETATM    4  C   UNL     1      -7.566 -25.835 -21.456  1.00  0.00     0.041 A 
HETATM    5  C   UNL     1      -8.922 -26.010 -21.951  1.00  0.00    -0.027 A 
HETATM    6  C   UNL     1      -9.541 -24.706 -22.031  1.00  0.00    -0.023 A 
HETATM    7  C   UNL     1      -8.563 -23.668 -21.553  1.00  0.00     0.041 A 
HETATM    8  C   UNL     1      -9.547 -27.331 -22.334  1.00  0.00     0.051 C 
ENDROOT
BRANCH   1   9
HETATM    9  C   UNL     1      -7.766 -21.499 -20.734  1.00  0.00     0.041 A 
HETATM   10  N   UNL     1      -6.856 -21.950 -19.852  1.00  0.00    -0.355 N 
HETATM   11  C   UNL     1      -6.158 -20.886 -19.419  1.00  0.00     0.041 A 
ATOM     12  HN  UNL     1      -6.720 -22.919 -19.564  1.00  0.00     0.166 HD
HETATM   13  C   UNL     1      -6.623 -19.756 -20.054  1.00  0.00    -0.027 A 
HETATM   14  C   UNL     1      -7.634 -20.131 -20.866  1.00  0.00    -0.023 A 
HETATM   15  C   UNL     1      -6.093 -18.338 -19.839  1.00  0.00     0.051 C 
BRANCH  11  16
HETATM   16  C   UNL     1      -4.994 -20.923 -18.474  1.00  0.00     0.060 C 
BRANCH  16  17
HETATM   17  C   UNL     1      -4.432 -22.011 -18.050  1.00  0.00     0.044 A 
HETATM   18  N   UNL     1      -4.992 -23.399 -18.046  1.00  0.00    -0.322 N 
HETATM   19  C   UNL     1      -3.990 -24.307 -17.395  1.00  0.00     0.256 A 
ATOM     20  HN  UNL     1      -5.899 -23.680 -18.421  1.00  0.00     0.169 HD
HETATM   21  O   UNL     1      -4.161 -25.467 -17.233  1.00  0.00    -0.267 OA
HETATM   22  C   UNL     1      -2.831 -23.431 -17.058  1.00  0.00     0.039 A 
HETATM   23  C   UNL     1      -3.104 -22.111 -17.435  1.00  0.00    -0.019 A 
HETATM   24  C   UNL     1      -2.176 -20.929 -17.269  1.00  0.00     0.052 C 
BRANCH  22  25
HETATM   25  C   UNL     1      -1.560 -23.897 -16.379  1.00  0.00     0.007 C 
HETATM   26  C   UNL     1      -0.516 -24.262 -17.078  1.00  0.00     0.012 C 
ENDBRANCH  22  25
ENDBRANCH  16  17
ENDBRANCH  11  16
BRANCH  14  27
HETATM   27  C   UNL     1      -8.476 -19.226 -21.768  1.00  0.00     0.052 C 
BRANCH  27  28
HETATM   28  C   UNL     1      -8.101 -19.432 -23.230  1.00  0.00     0.118 C 
BRANCH  28  29
HETATM   29  C   UNL     1      -6.882 -18.590 -23.617  1.00  0.00     0.172 C 
HETATM   30  O   UNL     1      -5.895 -19.146 -24.164  1.00  0.00    -0.648 OA
HETATM   31  O   UNL     1      -6.844 -17.354 -23.397  1.00  0.00    -0.648 OA
ENDBRANCH  28  29
ENDBRANCH  27  28
ENDBRANCH  14  27
ENDBRANCH   1   9
BRANCH   6  32
HETATM   32  C   UNL     1     -10.946 -24.391 -22.483  1.00  0.00     0.052 C 
BRANCH  32  33
HETATM   33  C   UNL     1     -10.958 -24.000 -23.963  1.00  0.00     0.118 C 
BRANCH  33  34
HETATM   34  C   UNL     1     -11.264 -25.184 -24.878  1.00  0.00     0.172 C 
HETATM   35  O   UNL     1     -12.045 -26.092 -24.485  1.00  0.00    -0.648 OA
HETATM   36  O   UNL     1     -10.734 -25.262 -26.015  1.00  0.00    -0.648 OA
ENDBRANCH  33  34
ENDBRANCH  32  33
ENDBRANCH   6  32
BRANCH   4  37
HETATM   37  C   UNL     1      -6.573 -26.919 -21.199  1.00  0.00     0.060 C 
HETATM   38  C   UNL     1      -6.881 -27.921 -20.444  1.00  0.00     0.048 A 
HETATM   39  N   UNL     1      -8.076 -27.997 -19.533  1.00  0.00    -0.322 N 
HETATM   40  C   UNL     1      -6.188 -29.219 -20.310  1.00  0.00     0.001 A 
HETATM   41  C   UNL     1      -8.052 -29.327 -18.842  1.00  0.00     0.252 A 
ATOM     42  HN  UNL     1      -8.780 -27.270 -19.406  1.00  0.00     0.169 HD
HETATM   43  O   UNL     1      -8.855 -29.666 -18.057  1.00  0.00    -0.268 OA
HETATM   44  C   UNL     1      -6.874 -30.035 -19.388  1.00  0.00     0.018 A 
HETATM   45  C   UNL     1      -6.459 -31.439 -18.990  1.00  0.00     0.055 C 
BRANCH  40  46
HETATM   46  C   UNL     1      -4.945 -29.679 -21.071  1.00  0.00     0.004 C 
HETATM   47  C   UNL     1      -4.990 -30.078 -22.312  1.00  0.00     0.012 C 
ENDBRANCH  40  46
ENDBRANCH   4  37
TORSDOF 12
ENDMDL
MODEL 9
REMARK VINA RESULT:    -8.949      4.054      7.641
REMARK INTER + INTRA:         -16.579
REMARK INTER:                 -14.439
REMARK INTRA:                  -2.141
REMARK UNBOUND:                -1.353
REMARK  12 active torsions:
REMARK  status: ('A' for Active; 'I' for Inactive)
REMARK    1  A    between atoms: C_1  and  C_4 
REMARK    2  A    between atoms: C_5  and  C_9 
REMARK    3  A    between atoms: C_7  and  C_14 
REMARK    4  A    between atoms: C_9  and  C_10 
REMARK    5  A    between atoms: C_10  and  C_11 
REMARK    6  A    between atoms: C_14  and  C_17 
REMARK    7  A    between atoms: C_19  and  C_23 
REMARK    8  A    between atoms: C_29  and  C_33 
REMARK    9  A    between atoms: C_35  and  C_38 
REMARK   10  A    between atoms: C_40  and  C_43 
REMARK   11  A    between atoms: C_43  and  C_44 
REMARK   12  A    between atoms: C_44  and  C_45 
ROOT
HETATM    1  C   UNL     1      -9.489 -22.830 -22.021  1.00  0.00     0.060 C 
HETATM    2  N   UNL     1     -11.501 -21.958 -20.817  1.00  0.00    -0.355 N 
ATOM      3  HN  UNL     1     -11.059 -21.364 -20.115  1.00  0.00     0.166 HD
HETATM    4  C   UNL     1     -12.926 -22.147 -20.976  1.00  0.00     0.041 A 
HETATM    5  C   UNL     1     -13.153 -23.086 -22.063  1.00  0.00    -0.027 A 
HETATM    6  C   UNL     1     -11.864 -23.482 -22.587  1.00  0.00    -0.023 A 
HETATM    7  C   UNL     1     -10.784 -22.759 -21.832  1.00  0.00     0.041 A 
HETATM    8  C   UNL     1     -14.504 -23.572 -22.529  1.00  0.00     0.051 C 
ENDROOT
BRANCH   1   9
HETATM    9  C   UNL     1      -8.551 -21.869 -21.348  1.00  0.00     0.041 A 
HETATM   10  N   UNL     1      -7.655 -22.219 -20.407  1.00  0.00    -0.355 N 
HETATM   11  C   UNL     1      -7.002 -21.103 -20.042  1.00  0.00     0.041 A 
ATOM     12  HN  UNL     1      -7.500 -23.158 -20.039  1.00  0.00     0.166 HD
HETATM   13  C   UNL     1      -7.481 -20.042 -20.778  1.00  0.00    -0.027 A 
HETATM   14  C   UNL     1      -8.456 -20.512 -21.585  1.00  0.00    -0.023 A 
HETATM   15  C   UNL     1      -7.000 -18.595 -20.662  1.00  0.00     0.051 C 
BRANCH  11  16
HETATM   16  C   UNL     1      -5.867 -21.028 -19.065  1.00  0.00     0.060 C 
BRANCH  16  17
HETATM   17  C   UNL     1      -5.243 -22.060 -18.589  1.00  0.00     0.044 A 
HETATM   18  N   UNL     1      -5.671 -23.494 -18.622  1.00  0.00    -0.322 N 
HETATM   19  C   UNL     1      -4.646 -24.305 -17.885  1.00  0.00     0.256 A 
ATOM     20  HN  UNL     1      -6.513 -23.857 -19.069  1.00  0.00     0.169 HD
HETATM   21  O   UNL     1      -4.722 -25.476 -17.731  1.00  0.00    -0.267 OA
HETATM   22  C   UNL     1      -3.605 -23.326 -17.460  1.00  0.00     0.039 A 
HETATM   23  C   UNL     1      -3.967 -22.037 -17.867  1.00  0.00    -0.019 A 
HETATM   24  C   UNL     1      -3.169 -20.774 -17.633  1.00  0.00     0.052 C 
BRANCH  22  25
HETATM   25  C   UNL     1      -2.356 -23.673 -16.676  1.00  0.00     0.007 C 
HETATM   26  C   UNL     1      -1.216 -23.885 -17.282  1.00  0.00     0.012 C 
ENDBRANCH  22  25
ENDBRANCH  16  17
ENDBRANCH  11  16
BRANCH  14  27
HETATM   27  C   UNL     1      -9.296 -19.709 -22.580  1.00  0.00     0.052 C 
BRANCH  27  28
HETATM   28  C   UNL     1      -8.539 -19.518 -23.887  1.00  0.00     0.118 C 
BRANCH  28  29
HETATM   29  C   UNL     1      -8.718 -20.723 -24.815  1.00  0.00     0.172 C 
HETATM   30  O   UNL     1      -7.706 -21.365 -25.198  1.00  0.00    -0.648 OA
HETATM   31  O   UNL     1      -9.856 -21.086 -25.205  1.00  0.00    -0.648 OA
ENDBRANCH  28  29
ENDBRANCH  27  28
ENDBRANCH  14  27
ENDBRANCH   1   9
BRANCH   6  32
HETATM   32  C   UNL     1     -11.598 -24.435 -23.727  1.00  0.00     0.052 C 
BRANCH  32  33
HETATM   33  C   UNL     1     -11.835 -25.881 -23.282  1.00  0.00     0.118 C 
BRANCH  33  34
HETATM   34  C   UNL     1     -10.708 -26.414 -22.400  1.00  0.00     0.172 C 
HETATM   35  O   UNL     1      -9.511 -26.306 -22.783  1.00  0.00    -0.648 OA
HETATM   36  O   UNL     1     -10.966 -26.967 -21.302  1.00  0.00    -0.648 OA
ENDBRANCH  33  34
ENDBRANCH  32  33
ENDBRANCH   6  32
BRANCH   4  37
HETATM   37  C   UNL     1     -13.978 -21.468 -20.164  1.00  0.00     0.060 C 
HETATM   38  C   UNL     1     -14.134 -21.765 -18.916  1.00  0.00     0.048 A 
HETATM   39  N   UNL     1     -13.540 -22.959 -18.219  1.00  0.00    -0.322 N 
HETATM   40  C   UNL     1     -14.877 -21.020 -17.879  1.00  0.00     0.001 A 
HETATM   41  C   UNL     1     -13.972 -22.924 -16.784  1.00  0.00     0.252 A 
ATOM     42  HN  UNL     1     -12.946 -23.669 -18.647  1.00  0.00     0.169 HD
HETATM   43  O   UNL     1     -13.673 -23.738 -15.995  1.00  0.00    -0.268 OA
HETATM   44  C   UNL     1     -14.773 -21.689 -16.642  1.00  0.00     0.018 A 
HETATM   45  C   UNL     1     -15.408 -21.225 -15.345  1.00  0.00     0.055 C 
BRANCH  40  46
HETATM   46  C   UNL     1     -15.616 -19.694 -18.053  1.00  0.00     0.004 C 
HETATM   47  C   UNL     1     -15.006 -18.542 -18.025  1.00  0.00     0.012 C 
ENDBRANCH  40  46
ENDBRANCH   4  37
TORSDOF 12
ENDMDL
MODEL 10
REMARK VINA RESULT:    -8.865      4.589      8.708
REMARK INTER + INTRA:         -16.436
REMARK INTER:                 -15.216
REMARK INTRA:                  -1.221
REMARK UNBOUND:                -1.353
REMARK  12 active torsions:
REMARK  status: ('A' for Active; 'I' for Inactive)
REMARK    1  A    between atoms: C_1  and  C_4 
REMARK    2  A    between atoms: C_5  and  C_9 
REMARK    3  A    between atoms: C_7  and  C_14 
REMARK    4  A    between atoms: C_9  and  C_10 
REMARK    5  A    between atoms: C_10  and  C_11 
REMARK    6  A    between atoms: C_14  and  C_17 
REMARK    7  A    between atoms: C_19  and  C_23 
REMARK    8  A    between atoms: C_29  and  C_33 
REMARK    9  A    between atoms: C_35  and  C_38 
REMARK   10  A    between atoms: C_40  and  C_43 
REMARK   11  A    between atoms: C_43  and  C_44 
REMARK   12  A    between atoms: C_44  and  C_45 
ROOT
HETATM    1  C   UNL     1      -3.089 -30.166 -20.034  1.00  0.00     0.060 C 
HETATM    2  N   UNL     1      -2.493 -27.837 -19.341  1.00  0.00    -0.355 N 
ATOM      3  HN  UNL     1      -1.642 -27.690 -19.884  1.00  0.00     0.166 HD
HETATM    4  C   UNL     1      -3.096 -26.868 -18.454  1.00  0.00     0.041 A 
HETATM    5  C   UNL     1      -4.275 -27.464 -17.846  1.00  0.00    -0.027 A 
HETATM    6  C   UNL     1      -4.410 -28.810 -18.359  1.00  0.00    -0.023 A 
HETATM    7  C   UNL     1      -3.301 -29.075 -19.339  1.00  0.00     0.041 A 
HETATM    8  C   UNL     1      -5.173 -26.790 -16.836  1.00  0.00     0.051 C 
ENDROOT
BRANCH   1   9
HETATM    9  C   UNL     1      -2.083 -30.195 -21.148  1.00  0.00     0.041 A 
HETATM   10  N   UNL     1      -0.776 -30.472 -20.981  1.00  0.00    -0.355 N 
HETATM   11  C   UNL     1      -0.196 -30.403 -22.191  1.00  0.00     0.041 A 
ATOM     12  HN  UNL     1      -0.313 -30.692 -20.100  1.00  0.00     0.166 HD
HETATM   13  C   UNL     1      -1.155 -30.100 -23.133  1.00  0.00    -0.027 A 
HETATM   14  C   UNL     1      -2.331 -29.957 -22.485  1.00  0.00    -0.023 A 
HETATM   15  C   UNL     1      -0.902 -29.932 -24.632  1.00  0.00     0.051 C 
BRANCH  11  16
HETATM   16  C   UNL     1       1.241 -30.704 -22.495  1.00  0.00     0.060 C 
BRANCH  16  17
HETATM   17  C   UNL     1       2.232 -30.400 -21.716  1.00  0.00     0.044 A 
HETATM   18  N   UNL     1       3.041 -29.140 -21.699  1.00  0.00    -0.322 N 
HETATM   19  C   UNL     1       4.115 -29.289 -20.662  1.00  0.00     0.256 A 
ATOM     20  HN  UNL     1       2.888 -28.323 -22.290  1.00  0.00     0.169 HD
HETATM   21  O   UNL     1       4.924 -28.456 -20.431  1.00  0.00    -0.267 OA
HETATM   22  C   UNL     1       3.892 -30.633 -20.058  1.00  0.00     0.039 A 
HETATM   23  C   UNL     1       2.808 -31.263 -20.681  1.00  0.00    -0.019 A 
HETATM   24  C   UNL     1       2.263 -32.633 -20.345  1.00  0.00     0.052 C 
BRANCH  22  25
HETATM   25  C   UNL     1       4.735 -31.239 -18.955  1.00  0.00     0.007 C 
HETATM   26  C   UNL     1       4.432 -31.056 -17.696  1.00  0.00     0.012 C 
ENDBRANCH  22  25
ENDBRANCH  16  17
ENDBRANCH  11  16
BRANCH  14  27
HETATM   27  C   UNL     1      -3.686 -29.605 -23.103  1.00  0.00     0.052 C 
BRANCH  27  28
HETATM   28  C   UNL     1      -4.479 -30.869 -23.405  1.00  0.00     0.118 C 
BRANCH  28  29
HETATM   29  C   UNL     1      -4.358 -31.264 -24.879  1.00  0.00     0.172 C 
HETATM   30  O   UNL     1      -3.565 -32.183 -25.211  1.00  0.00    -0.648 OA
HETATM   31  O   UNL     1      -5.032 -30.688 -25.770  1.00  0.00    -0.648 OA
ENDBRANCH  28  29
ENDBRANCH  27  28
ENDBRANCH  14  27
ENDBRANCH   1   9
BRANCH   6  32
HETATM   32  C   UNL     1      -5.488 -29.810 -18.020  1.00  0.00     0.052 C 
BRANCH  32  33
HETATM   33  C   UNL     1      -6.855 -29.303 -18.488  1.00  0.00     0.118 C 
BRANCH  33  34
HETATM   34  C   UNL     1      -6.839 -28.840 -19.944  1.00  0.00     0.172 C 
HETATM   35  O   UNL     1      -6.655 -29.681 -20.866  1.00  0.00    -0.648 OA
HETATM   36  O   UNL     1      -6.999 -27.626 -20.226  1.00  0.00    -0.648 OA
ENDBRANCH  33  34
ENDBRANCH  32  33
ENDBRANCH   6  32
BRANCH   4  37
HETATM   37  C   UNL     1      -2.593 -25.482 -18.226  1.00  0.00     0.060 C 
HETATM   38  C   UNL     1      -3.400 -24.475 -18.282  1.00  0.00     0.048 A 
HETATM   39  N   UNL     1      -4.797 -24.503 -18.841  1.00  0.00    -0.322 N 
HETATM   40  C   UNL     1      -3.187 -23.096 -17.797  1.00  0.00     0.001 A 
HETATM   41  C   UNL     1      -5.378 -23.127 -18.714  1.00  0.00     0.252 A 
ATOM     42  HN  UNL     1      -5.268 -25.317 -19.238  1.00  0.00     0.169 HD
HETATM   43  O   UNL     1      -6.454 -22.840 -19.079  1.00  0.00    -0.268 OA
HETATM   44  C   UNL     1      -4.338 -22.320 -18.040  1.00  0.00     0.018 A 
HETATM   45  C   UNL     1      -4.491 -20.853 -17.682  1.00  0.00     0.055 C 
BRANCH  40  46
HETATM   46  C   UNL     1      -1.948 -22.555 -17.085  1.00  0.00     0.004 C 
HETATM   47  C   UNL     1      -1.578 -21.307 -17.171  1.00  0.00     0.012 C 
ENDBRANCH  40  46
ENDBRANCH   4  37
TORSDOF 12
ENDMDL
MODEL 11
REMARK VINA RESULT:    -8.863      4.397      9.360
REMARK INTER + INTRA:         -16.434
REMARK INTER:                 -14.225
REMARK INTRA:                  -2.209
REMARK UNBOUND:                -1.353
REMARK  12 active torsions:
REMARK  status: ('A' for Active; 'I' for Inactive)
REMARK    1  A    between atoms: C_1  and  C_4 
REMARK    2  A    between atoms: C_5  and  C_9 
REMARK    3  A    between atoms: C_7  and  C_14 
REMARK    4  A    between atoms: C_9  and  C_10 
REMARK    5  A    between atoms: C_10  and  C_11 
REMARK    6  A    between atoms: C_14  and  C_17 
REMARK    7  A    between atoms: C_19  and  C_23 
REMARK    8  A    between atoms: C_29  and  C_33 
REMARK    9  A    between atoms: C_35  and  C_38 
REMARK   10  A    between atoms: C_40  and  C_43 
REMARK   11  A    between atoms: C_43  and  C_44 
REMARK   12  A    between atoms: C_44  and  C_45 
ROOT
HETATM    1  C   UNL     1      -6.016 -27.726 -19.764  1.00  0.00     0.060 C 
HETATM    2  N   UNL     1      -6.518 -28.866 -17.595  1.00  0.00    -0.355 N 
ATOM      3  HN  UNL     1      -5.833 -28.421 -16.984  1.00  0.00     0.166 HD
HETATM    4  C   UNL     1      -7.477 -29.868 -17.186  1.00  0.00     0.041 A 
HETATM    5  C   UNL     1      -8.252 -30.273 -18.348  1.00  0.00    -0.027 A 
HETATM    6  C   UNL     1      -7.776 -29.518 -19.486  1.00  0.00    -0.023 A 
HETATM    7  C   UNL     1      -6.684 -28.588 -19.037  1.00  0.00     0.041 A 
HETATM    8  C   UNL     1      -9.339 -31.320 -18.351  1.00  0.00     0.051 C 
ENDROOT
BRANCH   1   9
HETATM    9  C   UNL     1      -5.123 -26.699 -19.127  1.00  0.00     0.041 A 
HETATM   10  N   UNL     1      -5.508 -25.447 -18.820  1.00  0.00    -0.355 N 
HETATM   11  C   UNL     1      -4.450 -24.827 -18.271  1.00  0.00     0.041 A 
ATOM     12  HN  UNL     1      -6.432 -25.044 -18.975  1.00  0.00     0.166 HD
HETATM   13  C   UNL     1      -3.393 -25.707 -18.215  1.00  0.00    -0.027 A 
HETATM   14  C   UNL     1      -3.804 -26.873 -18.759  1.00  0.00    -0.023 A 
HETATM   15  C   UNL     1      -2.004 -25.390 -17.659  1.00  0.00     0.051 C 
BRANCH  11  16
HETATM   16  C   UNL     1      -4.438 -23.434 -17.716  1.00  0.00     0.060 C 
BRANCH  16  17
HETATM   17  C   UNL     1      -4.975 -22.409 -18.301  1.00  0.00     0.044 A 
HETATM   18  N   UNL     1      -6.180 -22.380 -19.190  1.00  0.00    -0.322 N 
HETATM   19  C   UNL     1      -6.368 -20.972 -19.675  1.00  0.00     0.256 A 
ATOM     20  HN  UNL     1      -6.770 -23.177 -19.424  1.00  0.00     0.169 HD
HETATM   21  O   UNL     1      -7.234 -20.641 -20.411  1.00  0.00    -0.267 OA
HETATM   22  C   UNL     1      -5.280 -20.186 -19.027  1.00  0.00     0.039 A 
HETATM   23  C   UNL     1      -4.482 -21.029 -18.245  1.00  0.00    -0.019 A 
HETATM   24  C   UNL     1      -3.284 -20.610 -17.423  1.00  0.00     0.052 C 
BRANCH  22  25
HETATM   25  C   UNL     1      -5.053 -18.700 -19.213  1.00  0.00     0.007 C 
HETATM   26  C   UNL     1      -4.232 -18.252 -20.128  1.00  0.00     0.012 C 
ENDBRANCH  22  25
ENDBRANCH  16  17
ENDBRANCH  11  16
BRANCH  14  27
HETATM   27  C   UNL     1      -2.979 -28.150 -18.934  1.00  0.00     0.052 C 
BRANCH  27  28
HETATM   28  C   UNL     1      -2.395 -28.221 -20.338  1.00  0.00     0.118 C 
BRANCH  28  29
HETATM   29  C   UNL     1      -2.282 -29.670 -20.821  1.00  0.00     0.172 C 
HETATM   30  O   UNL     1      -2.829 -30.007 -21.902  1.00  0.00    -0.648 OA
HETATM   31  O   UNL     1      -1.654 -30.534 -20.159  1.00  0.00    -0.648 OA
ENDBRANCH  28  29
ENDBRANCH  27  28
ENDBRANCH  14  27
ENDBRANCH   1   9
BRANCH   6  32
HETATM   32  C   UNL     1      -8.284 -29.593 -20.906  1.00  0.00     0.052 C 
BRANCH  32  33
HETATM   33  C   UNL     1      -9.717 -29.062 -20.991  1.00  0.00     0.118 C 
BRANCH  33  34
HETATM   34  C   UNL     1      -9.769 -27.572 -21.325  1.00  0.00     0.172 C 
HETATM   35  O   UNL     1     -10.846 -26.934 -21.171  1.00  0.00    -0.648 OA
HETATM   36  O   UNL     1      -8.750 -26.982 -21.763  1.00  0.00    -0.648 OA
ENDBRANCH  33  34
ENDBRANCH  32  33
ENDBRANCH   6  32
BRANCH   4  37
HETATM   37  C   UNL     1      -7.646 -30.377 -15.793  1.00  0.00     0.060 C 
HETATM   38  C   UNL     1      -6.845 -31.274 -15.323  1.00  0.00     0.048 A 
HETATM   39  N   UNL     1      -5.886 -32.104 -16.134  1.00  0.00    -0.322 N 
HETATM   40  C   UNL     1      -6.640 -31.680 -13.918  1.00  0.00     0.001 A 
HETATM   41  C   UNL     1      -5.153 -33.018 -15.199  1.00  0.00     0.252 A 
ATOM     42  HN  UNL     1      -5.756 -32.053 -17.145  1.00  0.00     0.169 HD
HETATM   43  O   UNL     1      -4.347 -33.794 -15.548  1.00  0.00    -0.268 OA
HETATM   44  C   UNL     1      -5.652 -32.683 -13.847  1.00  0.00     0.018 A 
HETATM   45  C   UNL     1      -5.175 -33.349 -12.570  1.00  0.00     0.055 C 
BRANCH  40  46
HETATM   46  C   UNL     1      -7.327 -31.096 -12.684  1.00  0.00     0.004 C 
HETATM   47  C   UNL     1      -8.371 -31.650 -12.133  1.00  0.00     0.012 C 
ENDBRANCH  40  46
ENDBRANCH   4  37
TORSDOF 12
ENDMDL
MODEL 12
REMARK VINA RESULT:    -8.847      5.455      9.980
REMARK INTER + INTRA:         -16.407
REMARK INTER:                 -13.134
REMARK INTRA:                  -3.273
REMARK UNBOUND:                -1.353
REMARK  12 active torsions:
REMARK  status: ('A' for Active; 'I' for Inactive)
REMARK    1  A    between atoms: C_1  and  C_4 
REMARK    2  A    between atoms: C_5  and  C_9 
REMARK    3  A    between atoms: C_7  and  C_14 
REMARK    4  A    between atoms: C_9  and  C_10 
REMARK    5  A    between atoms: C_10  and  C_11 
REMARK    6  A    between atoms: C_14  and  C_17 
REMARK    7  A    between atoms: C_19  and  C_23 
REMARK    8  A    between atoms: C_29  and  C_33 
REMARK    9  A    between atoms: C_35  and  C_38 
REMARK   10  A    between atoms: C_40  and  C_43 
REMARK   11  A    between atoms: C_43  and  C_44 
REMARK   12  A    between atoms: C_44  and  C_45 
ROOT
HETATM    1  C   UNL     1      -4.751 -28.828 -21.864  1.00  0.00     0.060 C 
HETATM    2  N   UNL     1      -2.270 -29.018 -21.612  1.00  0.00    -0.355 N 
ATOM      3  HN  UNL     1      -2.111 -28.391 -20.823  1.00  0.00     0.166 HD
HETATM    4  C   UNL     1      -1.245 -29.769 -22.303  1.00  0.00     0.041 A 
HETATM    5  C   UNL     1      -1.866 -30.519 -23.383  1.00  0.00    -0.027 A 
HETATM    6  C   UNL     1      -3.284 -30.237 -23.364  1.00  0.00    -0.023 A 
HETATM    7  C   UNL     1      -3.584 -29.300 -22.227  1.00  0.00     0.041 A 
HETATM    8  C   UNL     1      -1.136 -31.408 -24.361  1.00  0.00     0.051 C 
ENDROOT
BRANCH   1   9
HETATM    9  C   UNL     1      -4.923 -28.095 -20.564  1.00  0.00     0.041 A 
HETATM   10  N   UNL     1      -4.628 -26.795 -20.383  1.00  0.00    -0.355 N 
HETATM   11  C   UNL     1      -4.908 -26.496 -19.104  1.00  0.00     0.041 A 
ATOM     12  HN  UNL     1      -4.259 -26.155 -21.087  1.00  0.00     0.166 HD
HETATM   13  C   UNL     1      -5.405 -27.618 -18.479  1.00  0.00    -0.027 A 
HETATM   14  C   UNL     1      -5.405 -28.621 -19.382  1.00  0.00    -0.023 A 
HETATM   15  C   UNL     1      -5.845 -27.696 -17.016  1.00  0.00     0.051 C 
BRANCH  11  16
HETATM   16  C   UNL     1      -4.797 -25.140 -18.473  1.00  0.00     0.060 C 
BRANCH  16  17
HETATM   17  C   UNL     1      -3.689 -24.627 -18.035  1.00  0.00     0.044 A 
HETATM   18  N   UNL     1      -2.359 -25.296 -17.880  1.00  0.00    -0.322 N 
HETATM   19  C   UNL     1      -1.407 -24.308 -17.273  1.00  0.00     0.256 A 
ATOM     20  HN  UNL     1      -2.139 -26.257 -18.142  1.00  0.00     0.169 HD
HETATM   21  O   UNL     1      -0.278 -24.556 -17.016  1.00  0.00    -0.267 OA
HETATM   22  C   UNL     1      -2.194 -23.053 -17.115  1.00  0.00     0.039 A 
HETATM   23  C   UNL     1      -3.509 -23.255 -17.551  1.00  0.00    -0.019 A 
HETATM   24  C   UNL     1      -4.612 -22.220 -17.560  1.00  0.00     0.052 C 
BRANCH  22  25
HETATM   25  C   UNL     1      -1.658 -21.759 -16.537  1.00  0.00     0.007 C 
HETATM   26  C   UNL     1      -1.635 -20.661 -17.248  1.00  0.00     0.012 C 
ENDBRANCH  22  25
ENDBRANCH  16  17
ENDBRANCH  11  16
BRANCH  14  27
HETATM   27  C   UNL     1      -5.855 -30.066 -19.155  1.00  0.00     0.052 C 
BRANCH  27  28
HETATM   28  C   UNL     1      -4.740 -30.879 -18.512  1.00  0.00     0.118 C 
BRANCH  28  29
HETATM   29  C   UNL     1      -3.978 -31.702 -19.555  1.00  0.00     0.172 C 
HETATM   30  O   UNL     1      -2.733 -31.565 -19.662  1.00  0.00    -0.648 OA
HETATM   31  O   UNL     1      -4.571 -32.513 -20.310  1.00  0.00    -0.648 OA
ENDBRANCH  28  29
ENDBRANCH  27  28
ENDBRANCH  14  27
ENDBRANCH   1   9
BRANCH   6  32
HETATM   32  C   UNL     1      -4.336 -30.793 -24.293  1.00  0.00     0.052 C 
BRANCH  32  33
HETATM   33  C   UNL     1      -4.993 -32.032 -23.678  1.00  0.00     0.118 C 
BRANCH  33  34
HETATM   34  C   UNL     1      -6.502 -31.869 -23.506  1.00  0.00     0.172 C 
HETATM   35  O   UNL     1      -7.272 -32.110 -24.475  1.00  0.00    -0.648 OA
HETATM   36  O   UNL     1      -6.979 -31.485 -22.408  1.00  0.00    -0.648 OA
ENDBRANCH  33  34
ENDBRANCH  32  33
ENDBRANCH   6  32
BRANCH   4  37
HETATM   37  C   UNL     1       0.203 -29.779 -21.942  1.00  0.00     0.060 C 
HETATM   38  C   UNL     1       0.711 -30.783 -21.305  1.00  0.00     0.048 A 
HETATM   39  N   UNL     1      -0.070 -31.868 -20.614  1.00  0.00    -0.322 N 
HETATM   40  C   UNL     1       2.135 -31.134 -21.127  1.00  0.00     0.001 A 
HETATM   41  C   UNL     1       0.906 -32.827 -20.003  1.00  0.00     0.252 A 
ATOM     42  HN  UNL     1      -1.086 -31.939 -20.569  1.00  0.00     0.169 HD
HETATM   43  O   UNL     1       0.589 -33.772 -19.385  1.00  0.00    -0.268 OA
HETATM   44  C   UNL     1       2.245 -32.324 -20.381  1.00  0.00     0.018 A 
HETATM   45  C   UNL     1       3.551 -32.994 -19.995  1.00  0.00     0.055 C 
BRANCH  40  46
HETATM   46  C   UNL     1       3.342 -30.386 -21.691  1.00  0.00     0.004 C 
HETATM   47  C   UNL     1       3.874 -29.357 -21.092  1.00  0.00     0.012 C 
ENDBRANCH  40  46
ENDBRANCH   4  37
TORSDOF 12
ENDMDL
MODEL 13
REMARK VINA RESULT:    -8.755      4.769     10.408
REMARK INTER + INTRA:         -16.250
REMARK INTER:                 -14.078
REMARK INTRA:                  -2.171
REMARK UNBOUND:                -1.353
REMARK  12 active torsions:
REMARK  status: ('A' for Active; 'I' for Inactive)
REMARK    1  A    between atoms: C_1  and  C_4 
REMARK    2  A    between atoms: C_5  and  C_9 
REMARK    3  A    between atoms: C_7  and  C_14 
REMARK    4  A    between atoms: C_9  and  C_10 
REMARK    5  A    between atoms: C_10  and  C_11 
REMARK    6  A    between atoms: C_14  and  C_17 
REMARK    7  A    between atoms: C_19  and  C_23 
REMARK    8  A    between atoms: C_29  and  C_33 
REMARK    9  A    between atoms: C_35  and  C_38 
REMARK   10  A    between atoms: C_40  and  C_43 
REMARK   11  A    between atoms: C_43  and  C_44 
REMARK   12  A    between atoms: C_44  and  C_45 
ROOT
HETATM    1  C   UNL     1      -3.459 -28.985 -21.708  1.00  0.00     0.060 C 
HETATM    2  N   UNL     1      -1.174 -29.800 -21.100  1.00  0.00    -0.355 N 
ATOM      3  HN  UNL     1      -1.015 -29.289 -20.231  1.00  0.00     0.166 HD
HETATM    4  C   UNL     1      -0.246 -30.731 -21.703  1.00  0.00     0.041 A 
HETATM    5  C   UNL     1      -0.824 -31.227 -22.942  1.00  0.00    -0.027 A 
HETATM    6  C   UNL     1      -2.119 -30.605 -23.111  1.00  0.00    -0.023 A 
HETATM    7  C   UNL     1      -2.388 -29.705 -21.937  1.00  0.00     0.041 A 
HETATM    8  C   UNL     1      -0.160 -32.199 -23.888  1.00  0.00     0.051 C 
ENDROOT
BRANCH   1   9
HETATM    9  C   UNL     1      -3.683 -28.326 -20.377  1.00  0.00     0.041 A 
HETATM   10  N   UNL     1      -2.902 -27.351 -19.875  1.00  0.00    -0.355 N 
HETATM   11  C   UNL     1      -3.407 -27.013 -18.677  1.00  0.00     0.041 A 
ATOM     12  HN  UNL     1      -2.080 -26.945 -20.321  1.00  0.00     0.166 HD
HETATM   13  C   UNL     1      -4.531 -27.771 -18.433  1.00  0.00    -0.027 A 
HETATM   14  C   UNL     1      -4.700 -28.600 -19.485  1.00  0.00    -0.023 A 
HETATM   15  C   UNL     1      -5.398 -27.690 -17.176  1.00  0.00     0.051 C 
BRANCH  11  16
HETATM   16  C   UNL     1      -2.897 -25.921 -17.784  1.00  0.00     0.060 C 
BRANCH  16  17
HETATM   17  C   UNL     1      -3.292 -24.688 -17.840  1.00  0.00     0.044 A 
HETATM   18  N   UNL     1      -4.519 -24.140 -18.501  1.00  0.00    -0.322 N 
HETATM   19  C   UNL     1      -4.504 -22.647 -18.349  1.00  0.00     0.256 A 
ATOM     20  HN  UNL     1      -5.240 -24.687 -18.972  1.00  0.00     0.169 HD
HETATM   21  O   UNL     1      -5.342 -21.934 -18.786  1.00  0.00    -0.267 OA
HETATM   22  C   UNL     1      -3.274 -22.346 -17.562  1.00  0.00     0.039 A 
HETATM   23  C   UNL     1      -2.584 -23.531 -17.283  1.00  0.00    -0.019 A 
HETATM   24  C   UNL     1      -1.295 -23.646 -16.500  1.00  0.00     0.052 C 
BRANCH  22  25
HETATM   25  C   UNL     1      -2.824 -20.958 -17.153  1.00  0.00     0.007 C 
HETATM   26  C   UNL     1      -1.556 -20.636 -17.145  1.00  0.00     0.012 C 
ENDBRANCH  22  25
ENDBRANCH  16  17
ENDBRANCH  11  16
BRANCH  14  27
HETATM   27  C   UNL     1      -5.805 -29.642 -19.669  1.00  0.00     0.052 C 
BRANCH  27  28
HETATM   28  C   UNL     1      -5.487 -30.904 -18.880  1.00  0.00     0.118 C 
BRANCH  28  29
HETATM   29  C   UNL     1      -4.513 -31.807 -19.642  1.00  0.00     0.172 C 
HETATM   30  O   UNL     1      -3.279 -31.712 -19.420  1.00  0.00    -0.648 OA
HETATM   31  O   UNL     1      -4.920 -32.643 -20.487  1.00  0.00    -0.648 OA
ENDBRANCH  28  29
ENDBRANCH  27  28
ENDBRANCH  14  27
ENDBRANCH   1   9
BRANCH   6  32
HETATM   32  C   UNL     1      -3.090 -30.819 -24.246  1.00  0.00     0.052 C 
BRANCH  32  33
HETATM   33  C   UNL     1      -3.963 -32.048 -23.981  1.00  0.00     0.118 C 
BRANCH  33  34
HETATM   34  C   UNL     1      -5.455 -31.719 -23.988  1.00  0.00     0.172 C 
HETATM   35  O   UNL     1      -5.915 -30.886 -23.162  1.00  0.00    -0.648 OA
HETATM   36  O   UNL     1      -6.226 -32.283 -24.805  1.00  0.00    -0.648 OA
ENDBRANCH  33  34
ENDBRANCH  32  33
ENDBRANCH   6  32
BRANCH   4  37
HETATM   37  C   UNL     1       1.073 -31.124 -21.127  1.00  0.00     0.060 C 
HETATM   38  C   UNL     1       2.144 -30.473 -21.441  1.00  0.00     0.048 A 
HETATM   39  N   UNL     1       2.273 -29.494 -22.578  1.00  0.00    -0.322 N 
HETATM   40  C   UNL     1       3.461 -30.489 -20.772  1.00  0.00     0.001 A 
HETATM   41  C   UNL     1       3.678 -28.973 -22.588  1.00  0.00     0.252 A 
ATOM     42  HN  UNL     1       1.532 -29.231 -23.228  1.00  0.00     0.169 HD
HETATM   43  O   UNL     1       4.079 -28.201 -23.373  1.00  0.00    -0.268 OA
HETATM   44  C   UNL     1       4.345 -29.612 -21.432  1.00  0.00     0.018 A 
HETATM   45  C   UNL     1       5.788 -29.365 -21.033  1.00  0.00     0.055 C 
BRANCH  40  46
HETATM   46  C   UNL     1       3.844 -31.276 -19.519  1.00  0.00     0.004 C 
HETATM   47  C   UNL     1       4.491 -32.407 -19.571  1.00  0.00     0.012 C 
ENDBRANCH  40  46
ENDBRANCH   4  37
TORSDOF 12
ENDMDL
MODEL 14
REMARK VINA RESULT:    -8.751      1.688      2.141
REMARK INTER + INTRA:         -16.243
REMARK INTER:                 -15.760
REMARK INTRA:                  -0.484
REMARK UNBOUND:                -1.353
REMARK  12 active torsions:
REMARK  status: ('A' for Active; 'I' for Inactive)
REMARK    1  A    between atoms: C_1  and  C_4 
REMARK    2  A    between atoms: C_5  and  C_9 
REMARK    3  A    between atoms: C_7  and  C_14 
REMARK    4  A    between atoms: C_9  and  C_10 
REMARK    5  A    between atoms: C_10  and  C_11 
REMARK    6  A    between atoms: C_14  and  C_17 
REMARK    7  A    between atoms: C_19  and  C_23 
REMARK    8  A    between atoms: C_29  and  C_33 
REMARK    9  A    between atoms: C_35  and  C_38 
REMARK   10  A    between atoms: C_40  and  C_43 
REMARK   11  A    between atoms: C_43  and  C_44 
REMARK   12  A    between atoms: C_44  and  C_45 
ROOT
HETATM    1  C   UNL     1      -8.420 -22.056 -21.218  1.00  0.00     0.060 C 
HETATM    2  N   UNL     1      -6.430 -21.975 -19.704  1.00  0.00    -0.355 N 
ATOM      3  HN  UNL     1      -6.297 -22.968 -19.512  1.00  0.00     0.166 HD
HETATM    4  C   UNL     1      -5.607 -20.905 -19.184  1.00  0.00     0.041 A 
HETATM    5  C   UNL     1      -6.136 -19.637 -19.661  1.00  0.00    -0.027 A 
HETATM    6  C   UNL     1      -7.292 -19.917 -20.484  1.00  0.00    -0.023 A 
HETATM    7  C   UNL     1      -7.496 -21.405 -20.555  1.00  0.00     0.041 A 
HETATM    8  C   UNL     1      -5.578 -18.276 -19.322  1.00  0.00     0.051 C 
ENDROOT
BRANCH   1   9
HETATM    9  C   UNL     1      -8.350 -23.547 -21.387  1.00  0.00     0.041 A 
HETATM   10  N   UNL     1      -7.277 -24.295 -21.072  1.00  0.00    -0.355 N 
HETATM   11  C   UNL     1      -7.582 -25.572 -21.358  1.00  0.00     0.041 A 
ATOM     12  HN  UNL     1      -6.396 -23.956 -20.686  1.00  0.00     0.166 HD
HETATM   13  C   UNL     1      -8.871 -25.629 -21.841  1.00  0.00    -0.027 A 
HETATM   14  C   UNL     1      -9.349 -24.366 -21.873  1.00  0.00    -0.023 A 
HETATM   15  C   UNL     1      -9.596 -26.900 -22.283  1.00  0.00     0.051 C 
BRANCH  11  16
HETATM   16  C   UNL     1      -6.707 -26.763 -21.106  1.00  0.00     0.060 C 
BRANCH  16  17
HETATM   17  C   UNL     1      -6.818 -27.547 -20.079  1.00  0.00     0.044 A 
HETATM   18  N   UNL     1      -6.499 -27.245 -18.648  1.00  0.00    -0.322 N 
HETATM   19  C   UNL     1      -6.730 -28.492 -17.845  1.00  0.00     0.256 A 
ATOM     20  HN  UNL     1      -6.180 -26.348 -18.282  1.00  0.00     0.169 HD
HETATM   21  O   UNL     1      -6.546 -28.564 -16.677  1.00  0.00    -0.267 OA
HETATM   22  C   UNL     1      -7.221 -29.502 -18.824  1.00  0.00     0.039 A 
HETATM   23  C   UNL     1      -7.259 -28.945 -20.107  1.00  0.00    -0.019 A 
HETATM   24  C   UNL     1      -7.708 -29.648 -21.369  1.00  0.00     0.052 C 
BRANCH  22  25
HETATM   25  C   UNL     1      -7.593 -30.931 -18.484  1.00  0.00     0.007 C 
HETATM   26  C   UNL     1      -8.776 -31.226 -18.012  1.00  0.00     0.012 C 
ENDBRANCH  22  25
ENDBRANCH  16  17
ENDBRANCH  11  16
BRANCH  14  27
HETATM   27  C   UNL     1     -10.734 -23.918 -22.347  1.00  0.00     0.052 C 
BRANCH  27  28
HETATM   28  C   UNL     1     -11.083 -22.556 -21.763  1.00  0.00     0.118 C 
BRANCH  28  29
HETATM   29  C   UNL     1     -11.497 -21.570 -22.859  1.00  0.00     0.172 C 
HETATM   30  O   UNL     1     -11.244 -20.346 -22.717  1.00  0.00    -0.648 OA
HETATM   31  O   UNL     1     -12.087 -21.956 -23.899  1.00  0.00    -0.648 OA
ENDBRANCH  28  29
ENDBRANCH  27  28
ENDBRANCH  14  27
ENDBRANCH   1   9
BRANCH   6  32
HETATM   32  C   UNL     1      -8.164 -18.914 -21.200  1.00  0.00     0.052 C 
BRANCH  32  33
HETATM   33  C   UNL     1      -7.929 -18.983 -22.711  1.00  0.00     0.118 C 
BRANCH  33  34
HETATM   34  C   UNL     1      -6.849 -18.010 -23.179  1.00  0.00     0.172 C 
HETATM   35  O   UNL     1      -7.180 -16.886 -23.648  1.00  0.00    -0.648 OA
HETATM   36  O   UNL     1      -5.635 -18.326 -23.111  1.00  0.00    -0.648 OA
ENDBRANCH  33  34
ENDBRANCH  32  33
ENDBRANCH   6  32
BRANCH   4  37
HETATM   37  C   UNL     1      -4.404 -21.090 -18.321  1.00  0.00     0.060 C 
HETATM   38  C   UNL     1      -4.064 -22.269 -17.916  1.00  0.00     0.048 A 
HETATM   39  N   UNL     1      -4.925 -23.502 -17.988  1.00  0.00    -0.322 N 
HETATM   40  C   UNL     1      -2.780 -22.708 -17.334  1.00  0.00     0.001 A 
HETATM   41  C   UNL     1      -4.149 -24.646 -17.410  1.00  0.00     0.252 A 
ATOM     42  HN  UNL     1      -5.872 -23.550 -18.364  1.00  0.00     0.169 HD
HETATM   43  O   UNL     1      -4.571 -25.737 -17.320  1.00  0.00    -0.268 OA
HETATM   44  C   UNL     1      -2.828 -24.088 -17.051  1.00  0.00     0.018 A 
HETATM   45  C   UNL     1      -1.695 -24.893 -16.443  1.00  0.00     0.055 C 
BRANCH  40  46
HETATM   46  C   UNL     1      -1.536 -21.850 -17.104  1.00  0.00     0.004 C 
HETATM   47  C   UNL     1      -1.586 -20.550 -17.017  1.00  0.00     0.012 C 
ENDBRANCH  40  46
ENDBRANCH   4  37
TORSDOF 12
ENDMDL
MODEL 15
REMARK VINA RESULT:    -8.703      2.627      6.649
REMARK INTER + INTRA:         -16.161
REMARK INTER:                 -14.980
REMARK INTRA:                  -1.181
REMARK UNBOUND:                -1.353
REMARK  12 active torsions:
REMARK  status: ('A' for Active; 'I' for Inactive)
REMARK    1  A    between atoms: C_1  and  C_4 
REMARK    2  A    between atoms: C_5  and  C_9 
REMARK    3  A    between atoms: C_7  and  C_14 
REMARK    4  A    between atoms: C_9  and  C_10 
REMARK    5  A    between atoms: C_10  and  C_11 
REMARK    6  A    between atoms: C_14  and  C_17 
REMARK    7  A    between atoms: C_19  and  C_23 
REMARK    8  A    between atoms: C_29  and  C_33 
REMARK    9  A    between atoms: C_35  and  C_38 
REMARK   10  A    between atoms: C_40  and  C_43 
REMARK   11  A    between atoms: C_43  and  C_44 
REMARK   12  A    between atoms: C_44  and  C_45 
ROOT
HETATM    1  C   UNL     1      -6.584 -22.448 -18.973  1.00  0.00     0.060 C 
HETATM    2  N   UNL     1      -5.915 -24.707 -19.815  1.00  0.00    -0.355 N 
ATOM      3  HN  UNL     1      -6.647 -24.876 -20.505  1.00  0.00     0.166 HD
HETATM    4  C   UNL     1      -4.828 -25.611 -19.510  1.00  0.00     0.041 A 
HETATM    5  C   UNL     1      -4.018 -25.025 -18.455  1.00  0.00    -0.027 A 
HETATM    6  C   UNL     1      -4.599 -23.749 -18.102  1.00  0.00    -0.023 A 
HETATM    7  C   UNL     1      -5.801 -23.499 -18.970  1.00  0.00     0.041 A 
HETATM    8  C   UNL     1      -2.801 -25.666 -17.831  1.00  0.00     0.051 C 
ENDROOT
BRANCH   1   9
HETATM    9  C   UNL     1      -7.599 -22.237 -20.060  1.00  0.00     0.041 A 
HETATM   10  N   UNL     1      -8.374 -23.211 -20.571  1.00  0.00    -0.355 N 
HETATM   11  C   UNL     1      -9.149 -22.651 -21.515  1.00  0.00     0.041 A 
ATOM     12  HN  UNL     1      -8.374 -24.192 -20.292  1.00  0.00     0.166 HD
HETATM   13  C   UNL     1      -8.870 -21.304 -21.584  1.00  0.00    -0.027 A 
HETATM   14  C   UNL     1      -7.895 -21.044 -20.687  1.00  0.00    -0.023 A 
HETATM   15  C   UNL     1      -9.538 -20.309 -22.534  1.00  0.00     0.051 C 
BRANCH  11  16
HETATM   16  C   UNL     1     -10.217 -23.349 -22.303  1.00  0.00     0.060 C 
BRANCH  16  17
HETATM   17  C   UNL     1     -10.194 -24.608 -22.610  1.00  0.00     0.044 A 
HETATM   18  N   UNL     1      -9.680 -25.749 -21.789  1.00  0.00    -0.322 N 
HETATM   19  C   UNL     1      -9.810 -27.005 -22.601  1.00  0.00     0.256 A 
ATOM     20  HN  UNL     1      -9.307 -25.685 -20.842  1.00  0.00     0.169 HD
HETATM   21  O   UNL     1      -9.469 -28.072 -22.219  1.00  0.00    -0.267 OA
HETATM   22  C   UNL     1     -10.438 -26.577 -23.884  1.00  0.00     0.039 A 
HETATM   23  C   UNL     1     -10.646 -25.194 -23.876  1.00  0.00    -0.019 A 
HETATM   24  C   UNL     1     -11.269 -24.382 -24.990  1.00  0.00     0.052 C 
BRANCH  22  25
HETATM   25  C   UNL     1     -10.772 -27.502 -25.037  1.00  0.00     0.007 C 
HETATM   26  C   UNL     1      -9.963 -27.626 -26.058  1.00  0.00     0.012 C 
ENDBRANCH  22  25
ENDBRANCH  16  17
ENDBRANCH  11  16
BRANCH  14  27
HETATM   27  C   UNL     1      -7.240 -19.690 -20.405  1.00  0.00     0.052 C 
BRANCH  27  28
HETATM   28  C   UNL     1      -5.917 -19.877 -19.676  1.00  0.00     0.118 C 
BRANCH  28  29
HETATM   29  C   UNL     1      -5.170 -18.548 -19.527  1.00  0.00     0.172 C 
HETATM   30  O   UNL     1      -5.706 -17.605 -18.890  1.00  0.00    -0.648 OA
HETATM   31  O   UNL     1      -4.031 -18.377 -20.030  1.00  0.00    -0.648 OA
ENDBRANCH  28  29
ENDBRANCH  27  28
ENDBRANCH  14  27
ENDBRANCH   1   9
BRANCH   6  32
HETATM   32  C   UNL     1      -4.099 -22.777 -17.061  1.00  0.00     0.052 C 
BRANCH  32  33
HETATM   33  C   UNL     1      -3.273 -21.668 -17.718  1.00  0.00     0.118 C 
BRANCH  33  34
HETATM   34  C   UNL     1      -1.841 -21.613 -17.188  1.00  0.00     0.172 C 
HETATM   35  O   UNL     1      -1.270 -22.675 -16.818  1.00  0.00    -0.648 OA
HETATM   36  O   UNL     1      -1.234 -20.516 -17.108  1.00  0.00    -0.648 OA
ENDBRANCH  33  34
ENDBRANCH  32  33
ENDBRANCH   6  32
BRANCH   4  37
HETATM   37  C   UNL     1      -4.581 -26.916 -20.190  1.00  0.00     0.060 C 
HETATM   38  C   UNL     1      -5.462 -27.859 -20.137  1.00  0.00     0.048 A 
HETATM   39  N   UNL     1      -6.643 -27.902 -19.204  1.00  0.00    -0.322 N 
HETATM   40  C   UNL     1      -5.561 -29.076 -20.968  1.00  0.00     0.001 A 
HETATM   41  C   UNL     1      -7.402 -29.166 -19.472  1.00  0.00     0.252 A 
ATOM     42  HN  UNL     1      -6.884 -27.195 -18.509  1.00  0.00     0.169 HD
HETATM   43  O   UNL     1      -8.368 -29.481 -18.885  1.00  0.00    -0.268 OA
HETATM   44  C   UNL     1      -6.691 -29.826 -20.588  1.00  0.00     0.018 A 
HETATM   45  C   UNL     1      -7.117 -31.140 -21.216  1.00  0.00     0.055 C 
BRANCH  40  46
HETATM   46  C   UNL     1      -4.637 -29.480 -22.117  1.00  0.00     0.004 C 
HETATM   47  C   UNL     1      -3.381 -29.780 -21.934  1.00  0.00     0.012 C 
ENDBRANCH  40  46
ENDBRANCH   4  37
TORSDOF 12
ENDMDL
MODEL 16
REMARK VINA RESULT:    -8.694      4.707      9.182
REMARK INTER + INTRA:         -16.145
REMARK INTER:                 -14.463
REMARK INTRA:                  -1.682
REMARK UNBOUND:                -1.353
REMARK  12 active torsions:
REMARK  status: ('A' for Active; 'I' for Inactive)
REMARK    1  A    between atoms: C_1  and  C_4 
REMARK    2  A    between atoms: C_5  and  C_9 
REMARK    3  A    between atoms: C_7  and  C_14 
REMARK    4  A    between atoms: C_9  and  C_10 
REMARK    5  A    between atoms: C_10  and  C_11 
REMARK    6  A    between atoms: C_14  and  C_17 
REMARK    7  A    between atoms: C_19  and  C_23 
REMARK    8  A    between atoms: C_29  and  C_33 
REMARK    9  A    between atoms: C_35  and  C_38 
REMARK   10  A    between atoms: C_40  and  C_43 
REMARK   11  A    between atoms: C_43  and  C_44 
REMARK   12  A    between atoms: C_44  and  C_45 
ROOT
HETATM    1  C   UNL     1      -3.317 -30.396 -20.034  1.00  0.00     0.060 C 
HETATM    2  N   UNL     1      -2.703 -28.107 -19.234  1.00  0.00    -0.355 N 
ATOM      3  HN  UNL     1      -1.822 -27.963 -19.729  1.00  0.00     0.166 HD
HETATM    4  C   UNL     1      -3.329 -27.152 -18.346  1.00  0.00     0.041 A 
HETATM    5  C   UNL     1      -4.551 -27.738 -17.819  1.00  0.00    -0.027 A 
HETATM    6  C   UNL     1      -4.690 -29.062 -18.383  1.00  0.00    -0.023 A 
HETATM    7  C   UNL     1      -3.539 -29.323 -19.315  1.00  0.00     0.041 A 
HETATM    8  C   UNL     1      -5.483 -27.074 -16.835  1.00  0.00     0.051 C 
ENDROOT
BRANCH   1   9
HETATM    9  C   UNL     1      -2.256 -30.414 -21.096  1.00  0.00     0.041 A 
HETATM   10  N   UNL     1      -0.980 -30.789 -20.886  1.00  0.00    -0.355 N 
HETATM   11  C   UNL     1      -0.332 -30.674 -22.058  1.00  0.00     0.041 A 
ATOM     12  HN  UNL     1      -0.580 -31.101 -20.002  1.00  0.00     0.166 HD
HETATM   13  C   UNL     1      -1.217 -30.242 -23.020  1.00  0.00    -0.027 A 
HETATM   14  C   UNL     1      -2.416 -30.067 -22.422  1.00  0.00    -0.023 A 
HETATM   15  C   UNL     1      -0.875 -29.987 -24.488  1.00  0.00     0.051 C 
BRANCH  11  16
HETATM   16  C   UNL     1       1.097 -31.048 -22.312  1.00  0.00     0.060 C 
BRANCH  16  17
HETATM   17  C   UNL     1       2.095 -30.663 -21.578  1.00  0.00     0.044 A 
HETATM   18  N   UNL     1       2.822 -29.355 -21.622  1.00  0.00    -0.322 N 
HETATM   19  C   UNL     1       3.941 -29.410 -20.624  1.00  0.00     0.256 A 
ATOM     20  HN  UNL     1       2.595 -28.565 -22.225  1.00  0.00     0.169 HD
HETATM   21  O   UNL     1       4.704 -28.523 -20.442  1.00  0.00    -0.267 OA
HETATM   22  C   UNL     1       3.826 -30.749 -19.980  1.00  0.00     0.039 A 
HETATM   23  C   UNL     1       2.763 -31.462 -20.546  1.00  0.00    -0.019 A 
HETATM   24  C   UNL     1       2.319 -32.854 -20.157  1.00  0.00     0.052 C 
BRANCH  22  25
HETATM   25  C   UNL     1       4.746 -31.273 -18.896  1.00  0.00     0.007 C 
HETATM   26  C   UNL     1       4.457 -31.114 -17.630  1.00  0.00     0.012 C 
ENDBRANCH  22  25
ENDBRANCH  16  17
ENDBRANCH  11  16
BRANCH  14  27
HETATM   27  C   UNL     1      -3.710 -29.583 -23.079  1.00  0.00     0.052 C 
BRANCH  27  28
HETATM   28  C   UNL     1      -4.632 -30.758 -23.373  1.00  0.00     0.118 C 
BRANCH  28  29
HETATM   29  C   UNL     1      -4.606 -31.129 -24.858  1.00  0.00     0.172 C 
HETATM   30  O   UNL     1      -5.531 -30.730 -25.612  1.00  0.00    -0.648 OA
HETATM   31  O   UNL     1      -3.680 -31.827 -25.343  1.00  0.00    -0.648 OA
ENDBRANCH  28  29
ENDBRANCH  27  28
ENDBRANCH  14  27
ENDBRANCH   1   9
BRANCH   6  32
HETATM   32  C   UNL     1      -5.808 -30.046 -18.133  1.00  0.00     0.052 C 
BRANCH  32  33
HETATM   33  C   UNL     1      -5.426 -31.017 -17.013  1.00  0.00     0.118 C 
BRANCH  33  34
HETATM   34  C   UNL     1      -6.115 -30.685 -15.691  1.00  0.00     0.172 C 
HETATM   35  O   UNL     1      -5.638 -31.124 -14.609  1.00  0.00    -0.648 OA
HETATM   36  O   UNL     1      -7.159 -29.986 -15.676  1.00  0.00    -0.648 OA
ENDBRANCH  33  34
ENDBRANCH  32  33
ENDBRANCH   6  32
BRANCH   4  37
HETATM   37  C   UNL     1      -2.805 -25.787 -18.047  1.00  0.00     0.060 C 
HETATM   38  C   UNL     1      -3.575 -24.754 -18.149  1.00  0.00     0.048 A 
HETATM   39  N   UNL     1      -4.921 -24.728 -18.824  1.00  0.00    -0.322 N 
HETATM   40  C   UNL     1      -3.363 -23.392 -17.619  1.00  0.00     0.001 A 
HETATM   41  C   UNL     1      -5.469 -23.337 -18.716  1.00  0.00     0.252 A 
ATOM     42  HN  UNL     1      -5.380 -25.518 -19.277  1.00  0.00     0.169 HD
HETATM   43  O   UNL     1      -6.501 -23.009 -19.165  1.00  0.00    -0.268 OA
HETATM   44  C   UNL     1      -4.466 -22.575 -17.940  1.00  0.00     0.018 A 
HETATM   45  C   UNL     1      -4.606 -21.112 -17.565  1.00  0.00     0.055 C 
BRANCH  40  46
HETATM   46  C   UNL     1      -2.174 -22.903 -16.794  1.00  0.00     0.004 C 
HETATM   47  C   UNL     1      -1.237 -22.145 -17.293  1.00  0.00     0.012 C 
ENDBRANCH  40  46
ENDBRANCH   4  37
TORSDOF 12
ENDMDL
MODEL 17
REMARK VINA RESULT:    -8.549      2.770      8.613
REMARK INTER + INTRA:         -15.900
REMARK INTER:                 -13.933
REMARK INTRA:                  -1.967
REMARK UNBOUND:                -1.353
REMARK  12 active torsions:
REMARK  status: ('A' for Active; 'I' for Inactive)
REMARK    1  A    between atoms: C_1  and  C_4 
REMARK    2  A    between atoms: C_5  and  C_9 
REMARK    3  A    between atoms: C_7  and  C_14 
REMARK    4  A    between atoms: C_9  and  C_10 
REMARK    5  A    between atoms: C_10  and  C_11 
REMARK    6  A    between atoms: C_14  and  C_17 
REMARK    7  A    between atoms: C_19  and  C_23 
REMARK    8  A    between atoms: C_29  and  C_33 
REMARK    9  A    between atoms: C_35  and  C_38 
REMARK   10  A    between atoms: C_40  and  C_43 
REMARK   11  A    between atoms: C_43  and  C_44 
REMARK   12  A    between atoms: C_44  and  C_45 
ROOT
HETATM    1  C   UNL     1      -7.434 -28.397 -20.736  1.00  0.00     0.060 C 
HETATM    2  N   UNL     1      -8.405 -26.176 -21.354  1.00  0.00    -0.355 N 
ATOM      3  HN  UNL     1      -7.832 -25.553 -20.783  1.00  0.00     0.166 HD
HETATM    4  C   UNL     1      -9.458 -25.755 -22.252  1.00  0.00     0.041 A 
HETATM    5  C   UNL     1     -10.053 -26.936 -22.857  1.00  0.00    -0.027 A 
HETATM    6  C   UNL     1      -9.366 -28.098 -22.337  1.00  0.00    -0.023 A 
HETATM    7  C   UNL     1      -8.287 -27.648 -21.392  1.00  0.00     0.041 A 
HETATM    8  C   UNL     1     -11.205 -26.929 -23.833  1.00  0.00     0.051 C 
ENDROOT
BRANCH   1   9
HETATM    9  C   UNL     1      -6.261 -27.792 -20.017  1.00  0.00     0.041 A 
HETATM   10  N   UNL     1      -6.366 -26.972 -18.956  1.00  0.00    -0.355 N 
HETATM   11  C   UNL     1      -5.118 -26.635 -18.588  1.00  0.00     0.041 A 
ATOM     12  HN  UNL     1      -7.231 -26.663 -18.513  1.00  0.00     0.166 HD
HETATM   13  C   UNL     1      -4.219 -27.268 -19.416  1.00  0.00    -0.027 A 
HETATM   14  C   UNL     1      -4.928 -27.981 -20.318  1.00  0.00    -0.023 A 
HETATM   15  C   UNL     1      -2.697 -27.146 -19.330  1.00  0.00     0.051 C 
BRANCH  11  16
HETATM   16  C   UNL     1      -4.749 -25.787 -17.407  1.00  0.00     0.060 C 
BRANCH  16  17
HETATM   17  C   UNL     1      -4.300 -24.574 -17.490  1.00  0.00     0.044 A 
HETATM   18  N   UNL     1      -4.989 -23.371 -18.056  1.00  0.00    -0.322 N 
HETATM   19  C   UNL     1      -4.038 -22.212 -17.988  1.00  0.00     0.256 A 
ATOM     20  HN  UNL     1      -5.940 -23.344 -18.424  1.00  0.00     0.169 HD
HETATM   21  O   UNL     1      -4.298 -21.125 -18.378  1.00  0.00    -0.267 OA
HETATM   22  C   UNL     1      -2.808 -22.754 -17.342  1.00  0.00     0.039 A 
HETATM   23  C   UNL     1      -2.972 -24.116 -17.069  1.00  0.00    -0.019 A 
HETATM   24  C   UNL     1      -1.954 -25.020 -16.411  1.00  0.00     0.052 C 
BRANCH  22  25
HETATM   25  C   UNL     1      -1.555 -21.952 -17.055  1.00  0.00     0.007 C 
HETATM   26  C   UNL     1      -1.585 -20.645 -17.008  1.00  0.00     0.012 C 
ENDBRANCH  22  25
ENDBRANCH  16  17
ENDBRANCH  11  16
BRANCH  14  27
HETATM   27  C   UNL     1      -4.371 -28.842 -21.454  1.00  0.00     0.052 C 
BRANCH  27  28
HETATM   28  C   UNL     1      -4.547 -30.321 -21.138  1.00  0.00     0.118 C 
BRANCH  28  29
HETATM   29  C   UNL     1      -3.849 -30.698 -19.828  1.00  0.00     0.172 C 
HETATM   30  O   UNL     1      -2.593 -30.727 -19.783  1.00  0.00    -0.648 OA
HETATM   31  O   UNL     1      -4.505 -30.982 -18.795  1.00  0.00    -0.648 OA
ENDBRANCH  28  29
ENDBRANCH  27  28
ENDBRANCH  14  27
ENDBRANCH   1   9
BRANCH   6  32
HETATM   32  C   UNL     1      -9.633 -29.543 -22.683  1.00  0.00     0.052 C 
BRANCH  32  33
HETATM   33  C   UNL     1     -10.616 -30.159 -21.685  1.00  0.00     0.118 C 
BRANCH  33  34
HETATM   34  C   UNL     1     -10.015 -31.340 -20.925  1.00  0.00     0.172 C 
HETATM   35  O   UNL     1      -8.799 -31.634 -21.087  1.00  0.00    -0.648 OA
HETATM   36  O   UNL     1     -10.726 -32.026 -20.149  1.00  0.00    -0.648 OA
ENDBRANCH  33  34
ENDBRANCH  32  33
ENDBRANCH   6  32
BRANCH   4  37
HETATM   37  C   UNL     1      -9.844 -24.338 -22.518  1.00  0.00     0.060 C 
HETATM   38  C   UNL     1      -9.228 -23.370 -21.924  1.00  0.00     0.048 A 
HETATM   39  N   UNL     1      -8.311 -23.511 -20.739  1.00  0.00    -0.322 N 
HETATM   40  C   UNL     1      -9.233 -21.932 -22.260  1.00  0.00     0.001 A 
HETATM   41  C   UNL     1      -7.816 -22.147 -20.367  1.00  0.00     0.252 A 
ATOM     42  HN  UNL     1      -8.068 -24.384 -20.270  1.00  0.00     0.169 HD
HETATM   43  O   UNL     1      -7.091 -21.941 -19.468  1.00  0.00    -0.268 OA
HETATM   44  C   UNL     1      -8.406 -21.226 -21.363  1.00  0.00     0.018 A 
HETATM   45  C   UNL     1      -8.165 -19.729 -21.393  1.00  0.00     0.055 C 
BRANCH  40  46
HETATM   46  C   UNL     1      -9.962 -21.264 -23.426  1.00  0.00     0.004 C 
HETATM   47  C   UNL     1      -9.436 -21.160 -24.615  1.00  0.00     0.012 C 
ENDBRANCH  40  46
ENDBRANCH   4  37
TORSDOF 12
ENDMDL
MODEL 18
REMARK VINA RESULT:    -8.325      2.651      8.256
REMARK INTER + INTRA:         -15.517
REMARK INTER:                 -13.679
REMARK INTRA:                  -1.838
REMARK UNBOUND:                -1.353
REMARK  12 active torsions:
REMARK  status: ('A' for Active; 'I' for Inactive)
REMARK    1  A    between atoms: C_1  and  C_4 
REMARK    2  A    between atoms: C_5  and  C_9 
REMARK    3  A    between atoms: C_7  and  C_14 
REMARK    4  A    between atoms: C_9  and  C_10 
REMARK    5  A    between atoms: C_10  and  C_11 
REMARK    6  A    between atoms: C_14  and  C_17 
REMARK    7  A    between atoms: C_19  and  C_23 
REMARK    8  A    between atoms: C_29  and  C_33 
REMARK    9  A    between atoms: C_35  and  C_38 
REMARK   10  A    between atoms: C_40  and  C_43 
REMARK   11  A    between atoms: C_43  and  C_44 
REMARK   12  A    between atoms: C_44  and  C_45 
ROOT
HETATM    1  C   UNL     1      -8.125 -26.629 -21.299  1.00  0.00     0.060 C 
HETATM    2  N   UNL     1      -8.378 -24.143 -21.431  1.00  0.00    -0.355 N 
ATOM      3  HN  UNL     1      -7.615 -23.843 -20.823  1.00  0.00     0.166 HD
HETATM    4  C   UNL     1      -9.283 -23.262 -22.134  1.00  0.00     0.041 A 
HETATM    5  C   UNL     1     -10.243 -24.071 -22.868  1.00  0.00    -0.027 A 
HETATM    6  C   UNL     1      -9.933 -25.462 -22.625  1.00  0.00    -0.023 A 
HETATM    7  C   UNL     1      -8.728 -25.548 -21.730  1.00  0.00     0.041 A 
HETATM    8  C   UNL     1     -11.376 -23.533 -23.710  1.00  0.00     0.051 C 
ENDROOT
BRANCH   1   9
HETATM    9  C   UNL     1      -6.793 -26.553 -20.609  1.00  0.00     0.041 A 
HETATM   10  N   UNL     1      -6.491 -25.668 -19.641  1.00  0.00    -0.355 N 
HETATM   11  C   UNL     1      -5.221 -25.900 -19.269  1.00  0.00     0.041 A 
ATOM     12  HN  UNL     1      -7.112 -24.954 -19.260  1.00  0.00     0.166 HD
HETATM   13  C   UNL     1      -4.725 -26.958 -20.000  1.00  0.00    -0.027 A 
HETATM   14  C   UNL     1      -5.698 -27.360 -20.846  1.00  0.00    -0.023 A 
HETATM   15  C   UNL     1      -3.315 -27.535 -19.877  1.00  0.00     0.051 C 
BRANCH  11  16
HETATM   16  C   UNL     1      -4.483 -25.195 -18.171  1.00  0.00     0.060 C 
BRANCH  16  17
HETATM   17  C   UNL     1      -4.274 -23.916 -18.135  1.00  0.00     0.044 A 
HETATM   18  N   UNL     1      -5.239 -22.814 -18.441  1.00  0.00    -0.322 N 
HETATM   19  C   UNL     1      -4.509 -21.508 -18.323  1.00  0.00     0.256 A 
ATOM     20  HN  UNL     1      -6.222 -22.930 -18.687  1.00  0.00     0.169 HD
HETATM   21  O   UNL     1      -5.010 -20.454 -18.524  1.00  0.00    -0.267 OA
HETATM   22  C   UNL     1      -3.123 -21.870 -17.910  1.00  0.00     0.039 A 
HETATM   23  C   UNL     1      -3.002 -23.261 -17.813  1.00  0.00    -0.019 A 
HETATM   24  C   UNL     1      -1.756 -24.019 -17.412  1.00  0.00     0.052 C 
BRANCH  22  25
HETATM   25  C   UNL     1      -2.004 -20.879 -17.662  1.00  0.00     0.007 C 
HETATM   26  C   UNL     1      -1.565 -20.646 -16.453  1.00  0.00     0.012 C 
ENDBRANCH  22  25
ENDBRANCH  16  17
ENDBRANCH  11  16
BRANCH  14  27
HETATM   27  C   UNL     1      -5.618 -28.495 -21.869  1.00  0.00     0.052 C 
BRANCH  27  28
HETATM   28  C   UNL     1      -6.077 -29.807 -21.248  1.00  0.00     0.118 C 
BRANCH  28  29
HETATM   29  C   UNL     1      -4.895 -30.748 -20.997  1.00  0.00     0.172 C 
HETATM   30  O   UNL     1      -4.496 -30.941 -19.820  1.00  0.00    -0.648 OA
HETATM   31  O   UNL     1      -4.311 -31.333 -21.944  1.00  0.00    -0.648 OA
ENDBRANCH  28  29
ENDBRANCH  27  28
ENDBRANCH  14  27
ENDBRANCH   1   9
BRANCH   6  32
HETATM   32  C   UNL     1     -10.653 -26.667 -23.182  1.00  0.00     0.052 C 
BRANCH  32  33
HETATM   33  C   UNL     1     -11.858 -27.022 -22.308  1.00  0.00     0.118 C 
BRANCH  33  34
HETATM   34  C   UNL     1     -11.527 -28.077 -21.255  1.00  0.00     0.172 C 
HETATM   35  O   UNL     1     -11.405 -29.285 -21.597  1.00  0.00    -0.648 OA
HETATM   36  O   UNL     1     -11.385 -27.751 -20.050  1.00  0.00    -0.648 OA
ENDBRANCH  33  34
ENDBRANCH  32  33
ENDBRANCH   6  32
BRANCH   4  37
HETATM   37  C   UNL     1      -9.218 -21.772 -22.116  1.00  0.00     0.060 C 
HETATM   38  C   UNL     1      -9.014 -21.112 -23.209  1.00  0.00     0.048 A 
HETATM   39  N   UNL     1      -8.544 -21.701 -24.512  1.00  0.00    -0.322 N 
HETATM   40  C   UNL     1      -9.216 -19.672 -23.467  1.00  0.00     0.001 A 
HETATM   41  C   UNL     1      -8.438 -20.591 -25.514  1.00  0.00     0.252 A 
ATOM     42  HN  UNL     1      -8.334 -22.685 -24.684  1.00  0.00     0.169 HD
HETATM   43  O   UNL     1      -8.081 -20.746 -26.620  1.00  0.00    -0.268 OA
HETATM   44  C   UNL     1      -8.892 -19.374 -24.805  1.00  0.00     0.018 A 
HETATM   45  C   UNL     1      -8.973 -17.997 -25.436  1.00  0.00     0.055 C 
BRANCH  40  46
HETATM   46  C   UNL     1      -9.748 -18.630 -22.484  1.00  0.00     0.004 C 
HETATM   47  C   UNL     1     -10.981 -18.207 -22.507  1.00  0.00     0.012 C 
ENDBRANCH  40  46
ENDBRANCH   4  37
TORSDOF 12
ENDMDL
MODEL 19
REMARK VINA RESULT:    -8.216      4.675     10.294
REMARK INTER + INTRA:         -15.333
REMARK INTER:                 -12.447
REMARK INTRA:                  -2.886
REMARK UNBOUND:                -1.353
REMARK  12 active torsions:
REMARK  status: ('A' for Active; 'I' for Inactive)
REMARK    1  A    between atoms: C_1  and  C_4 
REMARK    2  A    between atoms: C_5  and  C_9 
REMARK    3  A    between atoms: C_7  and  C_14 
REMARK    4  A    between atoms: C_9  and  C_10 
REMARK    5  A    between atoms: C_10  and  C_11 
REMARK    6  A    between atoms: C_14  and  C_17 
REMARK    7  A    between atoms: C_19  and  C_23 
REMARK    8  A    between atoms: C_29  and  C_33 
REMARK    9  A    between atoms: C_35  and  C_38 
REMARK   10  A    between atoms: C_40  and  C_43 
REMARK   11  A    between atoms: C_43  and  C_44 
REMARK   12  A    between atoms: C_44  and  C_45 
ROOT
HETATM    1  C   UNL     1      -8.647 -19.964 -23.209  1.00  0.00     0.060 C 
HETATM    2  N   UNL     1      -9.274 -20.989 -25.403  1.00  0.00    -0.355 N 
ATOM      3  HN  UNL     1      -8.984 -20.252 -26.047  1.00  0.00     0.166 HD
HETATM    4  C   UNL     1      -9.866 -22.252 -25.789  1.00  0.00     0.041 A 
HETATM    5  C   UNL     1     -10.163 -23.013 -24.587  1.00  0.00    -0.027 A 
HETATM    6  C   UNL     1      -9.753 -22.225 -23.446  1.00  0.00    -0.023 A 
HETATM    7  C   UNL     1      -9.154 -20.933 -23.931  1.00  0.00     0.041 A 
HETATM    8  C   UNL     1     -10.813 -24.375 -24.555  1.00  0.00     0.051 C 
ENDROOT
BRANCH   1   9
HETATM    9  C   UNL     1      -7.871 -18.846 -23.845  1.00  0.00     0.041 A 
HETATM   10  N   UNL     1      -6.689 -19.004 -24.468  1.00  0.00    -0.355 N 
HETATM   11  C   UNL     1      -6.303 -17.793 -24.905  1.00  0.00     0.041 A 
ATOM     12  HN  UNL     1      -6.181 -19.880 -24.588  1.00  0.00     0.166 HD
HETATM   13  C   UNL     1      -7.265 -16.866 -24.568  1.00  0.00    -0.027 A 
HETATM   14  C   UNL     1      -8.239 -17.516 -23.896  1.00  0.00    -0.023 A 
HETATM   15  C   UNL     1      -7.204 -15.371 -24.885  1.00  0.00     0.051 C 
BRANCH  11  16
HETATM   16  C   UNL     1      -5.075 -17.500 -25.714  1.00  0.00     0.060 C 
BRANCH  16  17
HETATM   17  C   UNL     1      -3.881 -17.402 -25.220  1.00  0.00     0.044 A 
HETATM   18  N   UNL     1      -3.030 -18.488 -24.637  1.00  0.00    -0.322 N 
HETATM   19  C   UNL     1      -1.757 -17.868 -24.139  1.00  0.00     0.256 A 
ATOM     20  HN  UNL     1      -3.274 -19.477 -24.587  1.00  0.00     0.169 HD
HETATM   21  O   UNL     1      -0.892 -18.479 -23.610  1.00  0.00    -0.267 OA
HETATM   22  C   UNL     1      -1.870 -16.420 -24.476  1.00  0.00     0.039 A 
HETATM   23  C   UNL     1      -3.101 -16.167 -25.091  1.00  0.00    -0.019 A 
HETATM   24  C   UNL     1      -3.587 -14.824 -25.589  1.00  0.00     0.052 C 
BRANCH  22  25
HETATM   25  C   UNL     1      -0.819 -15.373 -24.168  1.00  0.00     0.007 C 
HETATM   26  C   UNL     1      -0.828 -14.722 -23.033  1.00  0.00     0.012 C 
ENDBRANCH  22  25
ENDBRANCH  16  17
ENDBRANCH  11  16
BRANCH  14  27
HETATM   27  C   UNL     1      -9.514 -16.909 -23.306  1.00  0.00     0.052 C 
BRANCH  27  28
HETATM   28  C   UNL     1     -10.740 -17.407 -24.058  1.00  0.00     0.118 C 
BRANCH  28  29
HETATM   29  C   UNL     1     -10.615 -17.148 -25.562  1.00  0.00     0.172 C 
HETATM   30  O   UNL     1     -10.285 -18.091 -26.327  1.00  0.00    -0.648 OA
HETATM   31  O   UNL     1     -10.833 -16.012 -26.052  1.00  0.00    -0.648 OA
ENDBRANCH  28  29
ENDBRANCH  27  28
ENDBRANCH  14  27
ENDBRANCH   1   9
BRANCH   6  32
HETATM   32  C   UNL     1      -9.857 -22.607 -21.989  1.00  0.00     0.052 C 
BRANCH  32  33
HETATM   33  C   UNL     1      -8.673 -23.486 -21.580  1.00  0.00     0.118 C 
BRANCH  33  34
HETATM   34  C   UNL     1      -7.839 -22.860 -20.463  1.00  0.00     0.172 C 
HETATM   35  O   UNL     1      -7.304 -23.600 -19.593  1.00  0.00    -0.648 OA
HETATM   36  O   UNL     1      -7.693 -21.614 -20.400  1.00  0.00    -0.648 OA
ENDBRANCH  33  34
ENDBRANCH  32  33
ENDBRANCH   6  32
BRANCH   4  37
HETATM   37  C   UNL     1     -10.105 -22.693 -27.194  1.00  0.00     0.060 C 
HETATM   38  C   UNL     1     -10.521 -21.852 -28.083  1.00  0.00     0.048 A 
HETATM   39  N   UNL     1     -11.077 -20.482 -27.799  1.00  0.00    -0.322 N 
HETATM   40  C   UNL     1     -10.525 -21.992 -29.553  1.00  0.00     0.001 A 
HETATM   41  C   UNL     1     -11.439 -19.846 -29.107  1.00  0.00     0.252 A 
ATOM     42  HN  UNL     1     -11.189 -20.060 -26.877  1.00  0.00     0.169 HD
HETATM   43  O   UNL     1     -11.911 -18.777 -29.201  1.00  0.00    -0.268 OA
HETATM   44  C   UNL     1     -11.048 -20.825 -30.145  1.00  0.00     0.018 A 
HETATM   45  C   UNL     1     -11.211 -20.602 -31.637  1.00  0.00     0.055 C 
BRANCH  40  46
HETATM   46  C   UNL     1     -10.002 -23.178 -30.363  1.00  0.00     0.004 C 
HETATM   47  C   UNL     1     -10.754 -24.193 -30.688  1.00  0.00     0.012 C 
ENDBRANCH  40  46
ENDBRANCH   4  37
TORSDOF 12
ENDMDL
MODEL 20
REMARK VINA RESULT:    -8.207      5.390      8.903
REMARK INTER + INTRA:         -15.317
REMARK INTER:                 -12.257
REMARK INTRA:                  -3.060
REMARK UNBOUND:                -1.353
REMARK  12 active torsions:
REMARK  status: ('A' for Active; 'I' for Inactive)
REMARK    1  A    between atoms: C_1  and  C_4 
REMARK    2  A    between atoms: C_5  and  C_9 
REMARK    3  A    between atoms: C_7  and  C_14 
REMARK    4  A    between atoms: C_9  and  C_10 
REMARK    5  A    between atoms: C_10  and  C_11 
REMARK    6  A    between atoms: C_14  and  C_17 
REMARK    7  A    between atoms: C_19  and  C_23 
REMARK    8  A    between atoms: C_29  and  C_33 
REMARK    9  A    between atoms: C_35  and  C_38 
REMARK   10  A    between atoms: C_40  and  C_43 
REMARK   11  A    between atoms: C_43  and  C_44 
REMARK   12  A    between atoms: C_44  and  C_45 
ROOT
HETATM    1  C   UNL     1      -5.470 -30.472 -18.577  1.00  0.00     0.060 C 
HETATM    2  N   UNL     1      -4.364 -28.236 -18.396  1.00  0.00    -0.355 N 
ATOM      3  HN  UNL     1      -5.060 -27.723 -17.854  1.00  0.00     0.166 HD
HETATM    4  C   UNL     1      -3.104 -27.698 -18.861  1.00  0.00     0.041 A 
HETATM    5  C   UNL     1      -2.410 -28.728 -19.617  1.00  0.00    -0.027 A 
HETATM    6  C   UNL     1      -3.237 -29.914 -19.621  1.00  0.00    -0.023 A 
HETATM    7  C   UNL     1      -4.485 -29.645 -18.826  1.00  0.00     0.041 A 
HETATM    8  C   UNL     1      -1.071 -28.559 -20.295  1.00  0.00     0.051 C 
ENDROOT
BRANCH   1   9
HETATM    9  C   UNL     1      -6.532 -30.135 -17.570  1.00  0.00     0.041 A 
HETATM   10  N   UNL     1      -6.308 -29.999 -16.250  1.00  0.00    -0.355 N 
HETATM   11  C   UNL     1      -7.485 -29.700 -15.674  1.00  0.00     0.041 A 
ATOM     12  HN  UNL     1      -5.412 -30.103 -15.775  1.00  0.00     0.166 HD
HETATM   13  C   UNL     1      -8.456 -29.627 -16.648  1.00  0.00    -0.027 A 
HETATM   14  C   UNL     1      -7.869 -29.911 -17.830  1.00  0.00    -0.023 A 
HETATM   15  C   UNL     1      -9.932 -29.310 -16.404  1.00  0.00     0.051 C 
BRANCH  11  16
HETATM   16  C   UNL     1      -7.700 -29.394 -14.222  1.00  0.00     0.060 C 
BRANCH  16  17
HETATM   17  C   UNL     1      -7.848 -30.294 -13.300  1.00  0.00     0.044 A 
HETATM   18  N   UNL     1      -6.870 -31.341 -12.866  1.00  0.00    -0.322 N 
HETATM   19  C   UNL     1      -7.526 -32.185 -11.813  1.00  0.00     0.256 A 
ATOM     20  HN  UNL     1      -5.922 -31.459 -13.223  1.00  0.00     0.169 HD
HETATM   21  O   UNL     1      -7.001 -33.107 -11.289  1.00  0.00    -0.267 OA
HETATM   22  C   UNL     1      -8.879 -31.589 -11.621  1.00  0.00     0.039 A 
HETATM   23  C   UNL     1      -9.051 -30.506 -12.489  1.00  0.00    -0.019 A 
HETATM   24  C   UNL     1     -10.284 -29.635 -12.591  1.00  0.00     0.052 C 
BRANCH  22  25
HETATM   25  C   UNL     1      -9.923 -32.102 -10.650  1.00  0.00     0.007 C 
HETATM   26  C   UNL     1     -10.601 -33.192 -10.903  1.00  0.00     0.012 C 
ENDBRANCH  22  25
ENDBRANCH  16  17
ENDBRANCH  11  16
BRANCH  14  27
HETATM   27  C   UNL     1      -8.544 -29.968 -19.203  1.00  0.00     0.052 C 
BRANCH  27  28
HETATM   28  C   UNL     1      -8.630 -28.576 -19.814  1.00  0.00     0.118 C 
BRANCH  28  29
HETATM   29  C   UNL     1      -7.341 -28.213 -20.557  1.00  0.00     0.172 C 
HETATM   30  O   UNL     1      -6.740 -27.146 -20.269  1.00  0.00    -0.648 OA
HETATM   31  O   UNL     1      -6.870 -28.958 -21.453  1.00  0.00    -0.648 OA
ENDBRANCH  28  29
ENDBRANCH  27  28
ENDBRANCH  14  27
ENDBRANCH   1   9
BRANCH   6  32
HETATM   32  C   UNL     1      -2.927 -31.238 -20.275  1.00  0.00     0.052 C 
BRANCH  32  33
HETATM   33  C   UNL     1      -3.535 -31.299 -21.678  1.00  0.00     0.118 C 
BRANCH  33  34
HETATM   34  C   UNL     1      -2.563 -30.828 -22.758  1.00  0.00     0.172 C 
HETATM   35  O   UNL     1      -2.743 -29.712 -23.318  1.00  0.00    -0.648 OA
HETATM   36  O   UNL     1      -1.592 -31.549 -23.099  1.00  0.00    -0.648 OA
ENDBRANCH  33  34
ENDBRANCH  32  33
ENDBRANCH   6  32
BRANCH   4  37
HETATM   37  C   UNL     1      -2.605 -26.319 -18.584  1.00  0.00     0.060 C 
HETATM   38  C   UNL     1      -3.427 -25.323 -18.542  1.00  0.00     0.048 A 
HETATM   39  N   UNL     1      -4.851 -25.340 -19.027  1.00  0.00    -0.322 N 
HETATM   40  C   UNL     1      -3.204 -23.969 -17.994  1.00  0.00     0.001 A 
HETATM   41  C   UNL     1      -5.440 -23.982 -18.795  1.00  0.00     0.252 A 
ATOM     42  HN  UNL     1      -5.333 -26.138 -19.443  1.00  0.00     0.169 HD
HETATM   43  O   UNL     1      -6.538 -23.691 -19.087  1.00  0.00    -0.268 OA
HETATM   44  C   UNL     1      -4.375 -23.197 -18.132  1.00  0.00     0.018 A 
HETATM   45  C   UNL     1      -4.527 -21.755 -17.687  1.00  0.00     0.055 C 
BRANCH  40  46
HETATM   46  C   UNL     1      -1.936 -23.449 -17.319  1.00  0.00     0.004 C 
HETATM   47  C   UNL     1      -1.621 -23.750 -16.090  1.00  0.00     0.012 C 
ENDBRANCH  40  46
ENDBRANCH   4  37
TORSDOF 12
ENDMDL
