MODEL 1
REMARK VINA RESULT:    -5.174      0.000      0.000
REMARK INTER + INTRA:          -5.857
REMARK INTER:                  -5.779
REMARK INTRA:                  -0.078
REMARK UNBOUND:                -0.078
REMARK  2 active torsions:
REMARK  status: ('A' for Active; 'I' for Inactive)
REMARK    1  A    between atoms: C_2  and  C_3 
REMARK    2  A    between atoms: C_2  and  N_8 
ROOT
HETATM    1  C   UNL     1      11.511  26.119  -5.909  1.00  0.00     0.017 A 
HETATM    2  C   UNL     1      12.828  26.466  -5.666  1.00  0.00     0.102 A 
HETATM    3  C   UNL     1      12.581  28.412  -6.844  1.00  0.00     0.087 A 
HETATM    4  C   UNL     1      11.254  28.129  -7.126  1.00  0.00     0.018 A 
HETATM    5  C   UNL     1      10.705  26.953  -6.652  1.00  0.00     0.017 A 
HETATM    6  N   UNL     1      13.340  27.595  -6.131  1.00  0.00    -0.374 N 
ATOM      7  HN  UNL     1      14.313  27.833  -5.941  1.00  0.00     0.164 HD
ENDROOT
BRANCH   1   8
HETATM    8  C   UNL     1      10.968  24.822  -5.358  1.00  0.00     0.107 C 
HETATM    9  S   UNL     1      10.032  24.759  -4.051  1.00  0.00    -0.060 SA
BRANCH   8  10
HETATM   10  N   UNL     1      11.361  23.663  -6.104  1.00  0.00    -0.385 N 
HETATM   11  C   UNL     1      10.513  23.142  -7.150  1.00  0.00     0.147 C 
ATOM     12  HN  UNL     1      12.247  23.203  -5.894  1.00  0.00     0.160 HD
ENDBRANCH   8  10
ENDBRANCH   1   8
TORSDOF 2
ENDMDL
MODEL 2
REMARK VINA RESULT:    -5.160      1.433      1.914
REMARK INTER + INTRA:          -5.842
REMARK INTER:                  -5.944
REMARK INTRA:                   0.103
REMARK UNBOUND:                -0.078
REMARK  2 active torsions:
REMARK  status: ('A' for Active; 'I' for Inactive)
REMARK    1  A    between atoms: C_2  and  C_3 
REMARK    2  A    between atoms: C_2  and  N_8 
ROOT
HETATM    1  C   UNL     1      11.268  25.967  -5.995  1.00  0.00     0.017 A 
HETATM    2  C   UNL     1      12.602  26.213  -5.721  1.00  0.00     0.102 A 
HETATM    3  C   UNL     1      12.496  28.239  -6.779  1.00  0.00     0.087 A 
HETATM    4  C   UNL     1      11.157  28.060  -7.088  1.00  0.00     0.018 A 
HETATM    5  C   UNL     1      10.527  26.896  -6.692  1.00  0.00     0.017 A 
HETATM    6  N   UNL     1      13.192  27.332  -6.112  1.00  0.00    -0.374 N 
ATOM      7  HN  UNL     1      14.176  27.494  -5.900  1.00  0.00     0.164 HD
ENDROOT
BRANCH   1   8
HETATM    8  C   UNL     1      10.637  24.678  -5.529  1.00  0.00     0.107 C 
HETATM    9  S   UNL     1      10.727  23.312  -6.374  1.00  0.00    -0.060 SA
BRANCH   8  10
HETATM   10  N   UNL     1       9.957  24.785  -4.272  1.00  0.00    -0.385 N 
HETATM   11  C   UNL     1      10.521  25.568  -3.198  1.00  0.00     0.147 C 
ATOM     12  HN  UNL     1       9.068  24.303  -4.135  1.00  0.00     0.160 HD
ENDBRANCH   8  10
ENDBRANCH   1   8
TORSDOF 2
ENDMDL
MODEL 3
REMARK VINA RESULT:    -4.917      1.655      3.924
REMARK INTER + INTRA:          -5.570
REMARK INTER:                  -5.487
REMARK INTRA:                  -0.083
REMARK UNBOUND:                -0.078
REMARK  2 active torsions:
REMARK  status: ('A' for Active; 'I' for Inactive)
REMARK    1  A    between atoms: C_2  and  C_3 
REMARK    2  A    between atoms: C_2  and  N_8 
ROOT
HETATM    1  C   UNL     1      10.519  25.825  -5.280  1.00  0.00     0.017 A 
HETATM    2  C   UNL     1      11.561  25.282  -6.011  1.00  0.00     0.102 A 
HETATM    3  C   UNL     1      10.353  23.381  -6.412  1.00  0.00     0.087 A 
HETATM    4  C   UNL     1       9.269  23.862  -5.694  1.00  0.00     0.018 A 
HETATM    5  C   UNL     1       9.353  25.111  -5.110  1.00  0.00     0.017 A 
HETATM    6  N   UNL     1      11.466  24.082  -6.560  1.00  0.00    -0.374 N 
ATOM      7  HN  UNL     1      12.245  23.699  -7.096  1.00  0.00     0.164 HD
ENDROOT
BRANCH   1   8
HETATM    8  C   UNL     1      10.671  27.198  -4.672  1.00  0.00     0.107 C 
HETATM    9  S   UNL     1       9.750  27.718  -3.459  1.00  0.00    -0.060 SA
BRANCH   8  10
HETATM   10  N   UNL     1      11.707  27.988  -5.270  1.00  0.00    -0.385 N 
HETATM   11  C   UNL     1      11.383  29.023  -6.223  1.00  0.00     0.147 C 
ATOM     12  HN  UNL     1      12.682  27.816  -5.021  1.00  0.00     0.160 HD
ENDBRANCH   8  10
ENDBRANCH   1   8
TORSDOF 2
ENDMDL
MODEL 4
REMARK VINA RESULT:    -4.900      2.445      4.389
REMARK INTER + INTRA:          -5.551
REMARK INTER:                  -5.484
REMARK INTRA:                  -0.067
REMARK UNBOUND:                -0.078
REMARK  2 active torsions:
REMARK  status: ('A' for Active; 'I' for Inactive)
REMARK    1  A    between atoms: C_2  and  C_3 
REMARK    2  A    between atoms: C_2  and  N_8 
ROOT
HETATM    1  C   UNL     1      11.109  26.012  -5.247  1.00  0.00     0.017 A 
HETATM    2  C   UNL     1      10.465  25.533  -4.121  1.00  0.00     0.102 A 
HETATM    3  C   UNL     1      10.054  23.530  -5.149  1.00  0.00     0.087 A 
HETATM    4  C   UNL     1      10.686  23.944  -6.311  1.00  0.00     0.018 A 
HETATM    5  C   UNL     1      11.223  25.216  -6.366  1.00  0.00     0.017 A 
HETATM    6  N   UNL     1       9.952  24.313  -4.086  1.00  0.00    -0.374 N 
ATOM      7  HN  UNL     1       9.481  23.978  -3.246  1.00  0.00     0.164 HD
ENDROOT
BRANCH   1   8
HETATM    8  C   UNL     1      11.681  27.409  -5.241  1.00  0.00     0.107 C 
HETATM    9  S   UNL     1      12.291  28.103  -6.558  1.00  0.00    -0.060 SA
BRANCH   8  10
HETATM   10  N   UNL     1      11.626  28.054  -3.962  1.00  0.00    -0.385 N 
HETATM   11  C   UNL     1      10.738  29.171  -3.742  1.00  0.00     0.147 C 
ATOM     12  HN  UNL     1      12.219  27.721  -3.202  1.00  0.00     0.160 HD
ENDBRANCH   8  10
ENDBRANCH   1   8
TORSDOF 2
ENDMDL
MODEL 5
REMARK VINA RESULT:    -4.645      2.144      4.166
REMARK INTER + INTRA:          -5.266
REMARK INTER:                  -5.183
REMARK INTRA:                  -0.083
REMARK UNBOUND:                -0.078
REMARK  2 active torsions:
REMARK  status: ('A' for Active; 'I' for Inactive)
REMARK    1  A    between atoms: C_2  and  C_3 
REMARK    2  A    between atoms: C_2  and  N_8 
ROOT
HETATM    1  C   UNL     1      10.127  25.898  -5.309  1.00  0.00     0.017 A 
HETATM    2  C   UNL     1      10.150  24.976  -4.277  1.00  0.00     0.102 A 
HETATM    3  C   UNL     1      10.283  23.243  -5.765  1.00  0.00     0.087 A 
HETATM    4  C   UNL     1      10.264  24.109  -6.847  1.00  0.00     0.018 A 
HETATM    5  C   UNL     1      10.180  25.468  -6.616  1.00  0.00     0.017 A 
HETATM    6  N   UNL     1      10.227  23.676  -4.515  1.00  0.00    -0.374 N 
ATOM      7  HN  UNL     1      10.244  23.013  -3.741  1.00  0.00     0.164 HD
ENDROOT
BRANCH   1   8
HETATM    8  C   UNL     1      10.040  27.371  -4.990  1.00  0.00     0.107 C 
HETATM    9  S   UNL     1       9.840  27.925  -3.492  1.00  0.00    -0.060 SA
BRANCH   8  10
HETATM   10  N   UNL     1      10.153  28.222  -6.138  1.00  0.00    -0.385 N 
HETATM   11  C   UNL     1      11.115  29.298  -6.161  1.00  0.00     0.147 C 
ATOM     12  HN  UNL     1       9.549  28.065  -6.945  1.00  0.00     0.160 HD
ENDBRANCH   8  10
ENDBRANCH   1   8
TORSDOF 2
ENDMDL
MODEL 6
REMARK VINA RESULT:    -4.529      2.736      4.554
REMARK INTER + INTRA:          -5.136
REMARK INTER:                  -5.069
REMARK INTRA:                  -0.067
REMARK UNBOUND:                -0.078
REMARK  2 active torsions:
REMARK  status: ('A' for Active; 'I' for Inactive)
REMARK    1  A    between atoms: C_2  and  C_3 
REMARK    2  A    between atoms: C_2  and  N_8 
ROOT
HETATM    1  C   UNL     1      10.405  26.500  -5.259  1.00  0.00     0.017 A 
HETATM    2  C   UNL     1      10.074  25.881  -4.067  1.00  0.00     0.102 A 
HETATM    3  C   UNL     1      10.161  23.820  -5.057  1.00  0.00     0.087 A 
HETATM    4  C   UNL     1      10.496  24.372  -6.284  1.00  0.00     0.018 A 
HETATM    5  C   UNL     1      10.617  25.744  -6.391  1.00  0.00     0.017 A 
HETATM    6  N   UNL     1       9.958  24.565  -3.982  1.00  0.00    -0.374 N 
ATOM      7  HN  UNL     1       9.713  24.128  -3.094  1.00  0.00     0.164 HD
ENDROOT
BRANCH   1   8
HETATM    8  C   UNL     1      10.528  28.004  -5.309  1.00  0.00     0.107 C 
HETATM    9  S   UNL     1      11.294  28.773  -6.497  1.00  0.00    -0.060 SA
BRANCH   8  10
HETATM   10  N   UNL     1       9.903  28.676  -4.208  1.00  0.00    -0.385 N 
HETATM   11  C   UNL     1       9.827  30.117  -4.176  1.00  0.00     0.147 C 
ATOM     12  HN  UNL     1       9.508  28.130  -3.442  1.00  0.00     0.160 HD
ENDBRANCH   8  10
ENDBRANCH   1   8
TORSDOF 2
ENDMDL
MODEL 7
REMARK VINA RESULT:    -4.498      1.436      1.483
REMARK INTER + INTRA:          -5.102
REMARK INTER:                  -5.030
REMARK INTRA:                  -0.073
REMARK UNBOUND:                -0.078
REMARK  2 active torsions:
REMARK  status: ('A' for Active; 'I' for Inactive)
REMARK    1  A    between atoms: C_2  and  C_3 
REMARK    2  A    between atoms: C_2  and  N_8 
ROOT
HETATM    1  C   UNL     1      10.996  26.866  -5.430  1.00  0.00     0.017 A 
HETATM    2  C   UNL     1      11.159  27.791  -4.415  1.00  0.00     0.102 A 
HETATM    3  C   UNL     1      11.271  29.503  -5.929  1.00  0.00     0.087 A 
HETATM    4  C   UNL     1      11.112  28.633  -6.996  1.00  0.00     0.018 A 
HETATM    5  C   UNL     1      10.975  27.282  -6.744  1.00  0.00     0.017 A 
HETATM    6  N   UNL     1      11.293  29.083  -4.674  1.00  0.00    -0.374 N 
ATOM      7  HN  UNL     1      11.412  29.749  -3.912  1.00  0.00     0.164 HD
ENDROOT
BRANCH   1   8
HETATM    8  C   UNL     1      10.846  25.403  -5.088  1.00  0.00     0.107 C 
HETATM    9  S   UNL     1      10.169  24.897  -3.719  1.00  0.00    -0.060 SA
BRANCH   8  10
HETATM   10  N   UNL     1      11.356  24.516  -6.091  1.00  0.00    -0.385 N 
HETATM   11  C   UNL     1      10.752  23.221  -6.301  1.00  0.00     0.147 C 
ATOM     12  HN  UNL     1      12.153  24.801  -6.661  1.00  0.00     0.160 HD
ENDBRANCH   8  10
ENDBRANCH   1   8
TORSDOF 2
ENDMDL
MODEL 8
REMARK VINA RESULT:    -4.408      3.247      5.025
REMARK INTER + INTRA:          -5.001
REMARK INTER:                  -4.955
REMARK INTRA:                  -0.046
REMARK UNBOUND:                -0.078
REMARK  2 active torsions:
REMARK  status: ('A' for Active; 'I' for Inactive)
REMARK    1  A    between atoms: C_2  and  C_3 
REMARK    2  A    between atoms: C_2  and  N_8 
ROOT
HETATM    1  C   UNL     1      10.081  28.195  -4.728  1.00  0.00     0.017 A 
HETATM    2  C   UNL     1       9.868  27.435  -3.592  1.00  0.00     0.102 A 
HETATM    3  C   UNL     1       9.746  25.520  -4.838  1.00  0.00     0.087 A 
HETATM    4  C   UNL     1       9.955  26.218  -6.017  1.00  0.00     0.018 A 
HETATM    5  C   UNL     1      10.122  27.588  -5.964  1.00  0.00     0.017 A 
HETATM    6  N   UNL     1       9.705  26.122  -3.660  1.00  0.00    -0.374 N 
ATOM      7  HN  UNL     1       9.550  25.580  -2.811  1.00  0.00     0.164 HD
ENDROOT
BRANCH   1   8
HETATM    8  C   UNL     1      10.263  29.688  -4.602  1.00  0.00     0.107 C 
HETATM    9  S   UNL     1       9.096  30.664  -4.076  1.00  0.00    -0.060 SA
BRANCH   8  10
HETATM   10  N   UNL     1      11.563  30.150  -4.990  1.00  0.00    -0.385 N 
HETATM   11  C   UNL     1      11.858  31.563  -5.028  1.00  0.00     0.147 C 
ATOM     12  HN  UNL     1      12.285  29.475  -5.240  1.00  0.00     0.160 HD
ENDBRANCH   8  10
ENDBRANCH   1   8
TORSDOF 2
ENDMDL
MODEL 9
REMARK VINA RESULT:    -4.324      2.307      4.288
REMARK INTER + INTRA:          -4.907
REMARK INTER:                  -4.854
REMARK INTRA:                  -0.053
REMARK UNBOUND:                -0.078
REMARK  2 active torsions:
REMARK  status: ('A' for Active; 'I' for Inactive)
REMARK    1  A    between atoms: C_2  and  C_3 
REMARK    2  A    between atoms: C_2  and  N_8 
ROOT
HETATM    1  C   UNL     1      10.308  26.944  -5.198  1.00  0.00     0.017 A 
HETATM    2  C   UNL     1       9.890  26.126  -6.233  1.00  0.00     0.102 A 
HETATM    3  C   UNL     1       9.836  24.312  -4.840  1.00  0.00     0.087 A 
HETATM    4  C   UNL     1      10.252  25.071  -3.757  1.00  0.00     0.018 A 
HETATM    5  C   UNL     1      10.498  26.418  -3.939  1.00  0.00     0.017 A 
HETATM    6  N   UNL     1       9.663  24.836  -6.043  1.00  0.00    -0.374 N 
ATOM      7  HN  UNL     1       9.355  24.250  -6.819  1.00  0.00     0.164 HD
ENDROOT
BRANCH   1   8
HETATM    8  C   UNL     1      10.554  28.410  -5.460  1.00  0.00     0.107 C 
HETATM    9  S   UNL     1      10.041  29.568  -4.467  1.00  0.00    -0.060 SA
BRANCH   8  10
HETATM   10  N   UNL     1      11.285  28.671  -6.665  1.00  0.00    -0.385 N 
HETATM   11  C   UNL     1      12.678  28.309  -6.771  1.00  0.00     0.147 C 
ATOM     12  HN  UNL     1      10.816  29.116  -7.454  1.00  0.00     0.160 HD
ENDBRANCH   8  10
ENDBRANCH   1   8
TORSDOF 2
ENDMDL
MODEL 10
REMARK VINA RESULT:    -4.308      2.096      2.276
REMARK INTER + INTRA:          -4.890
REMARK INTER:                  -4.833
REMARK INTRA:                  -0.057
REMARK UNBOUND:                -0.078
REMARK  2 active torsions:
REMARK  status: ('A' for Active; 'I' for Inactive)
REMARK    1  A    between atoms: C_2  and  C_3 
REMARK    2  A    between atoms: C_2  and  N_8 
ROOT
HETATM    1  C   UNL     1      10.444  26.205  -4.962  1.00  0.00     0.017 A 
HETATM    2  C   UNL     1      11.408  27.029  -5.516  1.00  0.00     0.102 A 
HETATM    3  C   UNL     1      10.991  28.647  -3.953  1.00  0.00     0.087 A 
HETATM    4  C   UNL     1      10.013  27.876  -3.346  1.00  0.00     0.018 A 
HETATM    5  C   UNL     1       9.728  26.627  -3.863  1.00  0.00     0.017 A 
HETATM    6  N   UNL     1      11.666  28.225  -5.011  1.00  0.00    -0.374 N 
ATOM      7  HN  UNL     1      12.380  28.817  -5.434  1.00  0.00     0.164 HD
ENDROOT
BRANCH   1   8
HETATM    8  C   UNL     1      10.184  24.848  -5.570  1.00  0.00     0.107 C 
HETATM    9  S   UNL     1       8.710  24.211  -5.673  1.00  0.00    -0.060 SA
BRANCH   8  10
HETATM   10  N   UNL     1      11.364  24.188  -6.045  1.00  0.00    -0.385 N 
HETATM   11  C   UNL     1      11.370  22.760  -6.261  1.00  0.00     0.147 C 
ATOM     12  HN  UNL     1      12.207  24.732  -6.233  1.00  0.00     0.160 HD
ENDBRANCH   8  10
ENDBRANCH   1   8
TORSDOF 2
ENDMDL
MODEL 11
REMARK VINA RESULT:    -4.092      2.971      3.337
REMARK INTER + INTRA:          -4.648
REMARK INTER:                  -4.565
REMARK INTRA:                  -0.083
REMARK UNBOUND:                -0.078
REMARK  2 active torsions:
REMARK  status: ('A' for Active; 'I' for Inactive)
REMARK    1  A    between atoms: C_2  and  C_3 
REMARK    2  A    between atoms: C_2  and  N_8 
ROOT
HETATM    1  C   UNL     1      10.801  28.150  -4.920  1.00  0.00     0.017 A 
HETATM    2  C   UNL     1      10.071  28.604  -3.836  1.00  0.00     0.102 A 
HETATM    3  C   UNL     1       9.527  30.529  -4.947  1.00  0.00     0.087 A 
HETATM    4  C   UNL     1      10.240  30.138  -6.070  1.00  0.00     0.018 A 
HETATM    5  C   UNL     1      10.896  28.923  -6.057  1.00  0.00     0.017 A 
HETATM    6  N   UNL     1       9.451  29.774  -3.863  1.00  0.00    -0.374 N 
ATOM      7  HN  UNL     1       8.917  30.090  -3.054  1.00  0.00     0.164 HD
ENDROOT
BRANCH   1   8
HETATM    8  C   UNL     1      11.491  26.810  -4.846  1.00  0.00     0.107 C 
HETATM    9  S   UNL     1      12.832  26.476  -5.670  1.00  0.00    -0.060 SA
BRANCH   8  10
HETATM   10  N   UNL     1      10.844  25.871  -3.977  1.00  0.00    -0.385 N 
HETATM   11  C   UNL     1      10.074  24.778  -4.521  1.00  0.00     0.147 C 
ATOM     12  HN  UNL     1      10.929  25.976  -2.966  1.00  0.00     0.160 HD
ENDBRANCH   8  10
ENDBRANCH   1   8
TORSDOF 2
ENDMDL
MODEL 12
REMARK VINA RESULT:    -4.073     10.166     11.519
REMARK INTER + INTRA:          -4.627
REMARK INTER:                  -4.542
REMARK INTRA:                  -0.085
REMARK UNBOUND:                -0.078
REMARK  2 active torsions:
REMARK  status: ('A' for Active; 'I' for Inactive)
REMARK    1  A    between atoms: C_2  and  C_3 
REMARK    2  A    between atoms: C_2  and  N_8 
ROOT
HETATM    1  C   UNL     1      12.457  19.606 -14.855  1.00  0.00     0.017 A 
HETATM    2  C   UNL     1      12.113  18.271 -14.741  1.00  0.00     0.102 A 
HETATM    3  C   UNL     1      11.452  18.576 -12.572  1.00  0.00     0.087 A 
HETATM    4  C   UNL     1      11.775  19.923 -12.614  1.00  0.00     0.018 A 
HETATM    5  C   UNL     1      12.293  20.452 -13.780  1.00  0.00     0.017 A 
HETATM    6  N   UNL     1      11.621  17.779 -13.615  1.00  0.00    -0.374 N 
ATOM      7  HN  UNL     1      11.373  16.791 -13.552  1.00  0.00     0.164 HD
ENDROOT
BRANCH   1   8
HETATM    8  C   UNL     1      13.014  20.124 -16.159  1.00  0.00     0.107 C 
HETATM    9  S   UNL     1      13.206  19.188 -17.453  1.00  0.00    -0.060 SA
BRANCH   8  10
HETATM   10  N   UNL     1      13.349  21.518 -16.135  1.00  0.00    -0.385 N 
HETATM   11  C   UNL     1      12.633  22.458 -16.964  1.00  0.00     0.147 C 
ATOM     12  HN  UNL     1      14.099  21.847 -15.528  1.00  0.00     0.160 HD
ENDBRANCH   8  10
ENDBRANCH   1   8
TORSDOF 2
ENDMDL
MODEL 13
REMARK VINA RESULT:    -3.972      9.836     11.035
REMARK INTER + INTRA:          -4.515
REMARK INTER:                  -4.448
REMARK INTRA:                  -0.066
REMARK UNBOUND:                -0.078
REMARK  2 active torsions:
REMARK  status: ('A' for Active; 'I' for Inactive)
REMARK    1  A    between atoms: C_2  and  C_3 
REMARK    2  A    between atoms: C_2  and  N_8 
ROOT
HETATM    1  C   UNL     1      11.648  20.853 -14.984  1.00  0.00     0.017 A 
HETATM    2  C   UNL     1      10.361  20.523 -15.369  1.00  0.00     0.102 A 
HETATM    3  C   UNL     1       9.779  20.068 -13.203  1.00  0.00     0.087 A 
HETATM    4  C   UNL     1      11.049  20.383 -12.746  1.00  0.00     0.018 A 
HETATM    5  C   UNL     1      12.009  20.781 -13.657  1.00  0.00     0.017 A 
HETATM    6  N   UNL     1       9.453  20.139 -14.484  1.00  0.00    -0.374 N 
ATOM      7  HN  UNL     1       8.510  19.901 -14.787  1.00  0.00     0.164 HD
ENDROOT
BRANCH   1   8
HETATM    8  C   UNL     1      12.649  21.287 -16.027  1.00  0.00     0.107 C 
HETATM    9  S   UNL     1      12.294  22.350 -17.182  1.00  0.00    -0.060 SA
BRANCH   8  10
HETATM   10  N   UNL     1      13.935  20.669 -15.892  1.00  0.00    -0.385 N 
HETATM   11  C   UNL     1      14.107  19.263 -16.173  1.00  0.00     0.147 C 
ATOM     12  HN  UNL     1      14.736  21.227 -15.594  1.00  0.00     0.160 HD
ENDBRANCH   8  10
ENDBRANCH   1   8
TORSDOF 2
ENDMDL
MODEL 14
REMARK VINA RESULT:    -3.951      3.680      5.463
REMARK INTER + INTRA:          -4.491
REMARK INTER:                  -4.444
REMARK INTRA:                  -0.047
REMARK UNBOUND:                -0.078
REMARK  2 active torsions:
REMARK  status: ('A' for Active; 'I' for Inactive)
REMARK    1  A    between atoms: C_2  and  C_3 
REMARK    2  A    between atoms: C_2  and  N_8 
ROOT
HETATM    1  C   UNL     1      10.309  29.042  -4.873  1.00  0.00     0.017 A 
HETATM    2  C   UNL     1      10.186  28.269  -6.014  1.00  0.00     0.102 A 
HETATM    3  C   UNL     1       9.940  26.372  -4.760  1.00  0.00     0.087 A 
HETATM    4  C   UNL     1      10.054  27.083  -3.576  1.00  0.00     0.018 A 
HETATM    5  C   UNL     1      10.247  28.450  -3.631  1.00  0.00     0.017 A 
HETATM    6  N   UNL     1      10.005  26.960  -5.944  1.00  0.00    -0.374 N 
ATOM      7  HN  UNL     1       9.917  26.407  -6.796  1.00  0.00     0.164 HD
ENDROOT
BRANCH   1   8
HETATM    8  C   UNL     1      10.513  30.533  -5.001  1.00  0.00     0.107 C 
HETATM    9  S   UNL     1       9.381  31.516  -5.584  1.00  0.00    -0.060 SA
BRANCH   8  10
HETATM   10  N   UNL     1      11.798  30.984  -4.556  1.00  0.00    -0.385 N 
HETATM   11  C   UNL     1      12.521  31.988  -5.301  1.00  0.00     0.147 C 
ATOM     12  HN  UNL     1      12.205  30.593  -3.706  1.00  0.00     0.160 HD
ENDBRANCH   8  10
ENDBRANCH   1   8
TORSDOF 2
ENDMDL
MODEL 15
REMARK VINA RESULT:    -3.892     10.082     11.675
REMARK INTER + INTRA:          -4.425
REMARK INTER:                  -4.334
REMARK INTRA:                  -0.091
REMARK UNBOUND:                -0.078
REMARK  2 active torsions:
REMARK  status: ('A' for Active; 'I' for Inactive)
REMARK    1  A    between atoms: C_2  and  C_3 
REMARK    2  A    between atoms: C_2  and  N_8 
ROOT
HETATM    1  C   UNL     1      11.907  18.340 -14.171  1.00  0.00     0.017 A 
HETATM    2  C   UNL     1      12.045  16.993 -13.885  1.00  0.00     0.102 A 
HETATM    3  C   UNL     1      13.356  16.686 -15.734  1.00  0.00     0.087 A 
HETATM    4  C   UNL     1      13.262  18.024 -16.082  1.00  0.00     0.018 A 
HETATM    5  C   UNL     1      12.517  18.872 -15.285  1.00  0.00     0.017 A 
HETATM    6  N   UNL     1      12.759  16.193 -14.661  1.00  0.00    -0.374 N 
ATOM      7  HN  UNL     1      12.848  15.203 -14.433  1.00  0.00     0.164 HD
ENDROOT
BRANCH   1   8
HETATM    8  C   UNL     1      11.084  19.216 -13.257  1.00  0.00     0.107 C 
HETATM    9  S   UNL     1      11.532  20.706 -12.847  1.00  0.00    -0.060 SA
BRANCH   8  10
HETATM   10  N   UNL     1       9.875  18.600 -12.794  1.00  0.00    -0.385 N 
HETATM   11  C   UNL     1       8.655  18.717 -13.556  1.00  0.00     0.147 C 
ATOM     12  HN  UNL     1       9.878  18.074 -11.920  1.00  0.00     0.160 HD
ENDBRANCH   8  10
ENDBRANCH   1   8
TORSDOF 2
ENDMDL
MODEL 16
REMARK VINA RESULT:    -3.886      9.805     11.356
REMARK INTER + INTRA:          -4.418
REMARK INTER:                  -4.345
REMARK INTRA:                  -0.073
REMARK UNBOUND:                -0.078
REMARK  2 active torsions:
REMARK  status: ('A' for Active; 'I' for Inactive)
REMARK    1  A    between atoms: C_2  and  C_3 
REMARK    2  A    between atoms: C_2  and  N_8 
ROOT
HETATM    1  C   UNL     1      11.781  20.099 -15.457  1.00  0.00     0.017 A 
HETATM    2  C   UNL     1      12.818  20.953 -15.789  1.00  0.00     0.102 A 
HETATM    3  C   UNL     1      14.304  19.214 -15.821  1.00  0.00     0.087 A 
HETATM    4  C   UNL     1      13.315  18.301 -15.491  1.00  0.00     0.018 A 
HETATM    5  C   UNL     1      12.023  18.752 -15.300  1.00  0.00     0.017 A 
HETATM    6  N   UNL     1      14.052  20.505 -15.964  1.00  0.00    -0.374 N 
ATOM      7  HN  UNL     1      14.802  21.151 -16.208  1.00  0.00     0.164 HD
ENDROOT
BRANCH   1   8
HETATM    8  C   UNL     1      10.390  20.654 -15.268  1.00  0.00     0.107 C 
HETATM    9  S   UNL     1       9.296  20.675 -16.448  1.00  0.00    -0.060 SA
BRANCH   8  10
HETATM   10  N   UNL     1      10.138  21.155 -13.949  1.00  0.00    -0.385 N 
HETATM   11  C   UNL     1       9.488  20.325 -12.962  1.00  0.00     0.147 C 
ATOM     12  HN  UNL     1      10.421  22.104 -13.706  1.00  0.00     0.160 HD
ENDBRANCH   8  10
ENDBRANCH   1   8
TORSDOF 2
ENDMDL
MODEL 17
REMARK VINA RESULT:    -3.854      9.834     11.231
REMARK INTER + INTRA:          -4.383
REMARK INTER:                  -4.313
REMARK INTRA:                  -0.070
REMARK UNBOUND:                -0.078
REMARK  2 active torsions:
REMARK  status: ('A' for Active; 'I' for Inactive)
REMARK    1  A    between atoms: C_2  and  C_3 
REMARK    2  A    between atoms: C_2  and  N_8 
ROOT
HETATM    1  C   UNL     1      11.623  19.328 -14.471  1.00  0.00     0.017 A 
HETATM    2  C   UNL     1      11.222  20.637 -14.669  1.00  0.00     0.102 A 
HETATM    3  C   UNL     1       9.596  20.431 -13.072  1.00  0.00     0.087 A 
HETATM    4  C   UNL     1       9.945  19.113 -12.820  1.00  0.00     0.018 A 
HETATM    5  C   UNL     1      10.979  18.545 -13.538  1.00  0.00     0.017 A 
HETATM    6  N   UNL     1      10.226  21.165 -13.976  1.00  0.00    -0.374 N 
ATOM      7  HN  UNL     1       9.945  22.133 -14.136  1.00  0.00     0.164 HD
ENDROOT
BRANCH   1   8
HETATM    8  C   UNL     1      12.765  18.767 -15.284  1.00  0.00     0.107 C 
HETATM    9  S   UNL     1      14.038  19.650 -15.716  1.00  0.00    -0.060 SA
BRANCH   8  10
HETATM   10  N   UNL     1      12.609  17.385 -15.629  1.00  0.00    -0.385 N 
HETATM   11  C   UNL     1      13.535  16.396 -15.130  1.00  0.00     0.147 C 
ATOM     12  HN  UNL     1      11.838  17.098 -16.232  1.00  0.00     0.160 HD
ENDBRANCH   8  10
ENDBRANCH   1   8
TORSDOF 2
ENDMDL
MODEL 18
REMARK VINA RESULT:    -3.831     10.048     11.327
REMARK INTER + INTRA:          -4.357
REMARK INTER:                  -4.272
REMARK INTRA:                  -0.085
REMARK UNBOUND:                -0.078
REMARK  2 active torsions:
REMARK  status: ('A' for Active; 'I' for Inactive)
REMARK    1  A    between atoms: C_2  and  C_3 
REMARK    2  A    between atoms: C_2  and  N_8 
ROOT
HETATM    1  C   UNL     1      11.417  18.922 -14.241  1.00  0.00     0.017 A 
HETATM    2  C   UNL     1      10.563  18.130 -13.494  1.00  0.00     0.102 A 
HETATM    3  C   UNL     1       9.381  19.967 -12.811  1.00  0.00     0.087 A 
HETATM    4  C   UNL     1      10.197  20.820 -13.537  1.00  0.00     0.018 A 
HETATM    5  C   UNL     1      11.242  20.288 -14.267  1.00  0.00     0.017 A 
HETATM    6  N   UNL     1       9.568  18.656 -12.796  1.00  0.00    -0.374 N 
ATOM      7  HN  UNL     1       8.949  18.056 -12.252  1.00  0.00     0.164 HD
ENDROOT
BRANCH   1   8
HETATM    8  C   UNL     1      12.537  18.279 -15.022  1.00  0.00     0.107 C 
HETATM    9  S   UNL     1      12.712  16.683 -15.134  1.00  0.00    -0.060 SA
BRANCH   8  10
HETATM   10  N   UNL     1      13.420  19.216 -15.651  1.00  0.00    -0.385 N 
HETATM   11  C   UNL     1      13.525  19.273 -17.090  1.00  0.00     0.147 C 
ATOM     12  HN  UNL     1      13.979  19.847 -15.077  1.00  0.00     0.160 HD
ENDBRANCH   8  10
ENDBRANCH   1   8
TORSDOF 2
ENDMDL
MODEL 19
REMARK VINA RESULT:    -3.748      9.734     11.462
REMARK INTER + INTRA:          -4.264
REMARK INTER:                  -4.163
REMARK INTRA:                  -0.101
REMARK UNBOUND:                -0.078
REMARK  2 active torsions:
REMARK  status: ('A' for Active; 'I' for Inactive)
REMARK    1  A    between atoms: C_2  and  C_3 
REMARK    2  A    between atoms: C_2  and  N_8 
ROOT
HETATM    1  C   UNL     1      12.279  18.997 -14.696  1.00  0.00     0.017 A 
HETATM    2  C   UNL     1      12.923  20.192 -14.428  1.00  0.00     0.102 A 
HETATM    3  C   UNL     1      11.693  20.481 -12.520  1.00  0.00     0.087 A 
HETATM    4  C   UNL     1      11.008  19.293 -12.725  1.00  0.00     0.018 A 
HETATM    5  C   UNL     1      11.304  18.534 -13.840  1.00  0.00     0.017 A 
HETATM    6  N   UNL     1      12.625  20.910 -13.356  1.00  0.00    -0.374 N 
ATOM      7  HN  UNL     1      13.111  21.788 -13.176  1.00  0.00     0.164 HD
ENDROOT
BRANCH   1   8
HETATM    8  C   UNL     1      12.652  18.210 -15.929  1.00  0.00     0.107 C 
HETATM    9  S   UNL     1      13.224  16.707 -15.860  1.00  0.00    -0.060 SA
BRANCH   8  10
HETATM   10  N   UNL     1      12.448  18.922 -17.156  1.00  0.00    -0.385 N 
HETATM   11  C   UNL     1      11.114  19.250 -17.601  1.00  0.00     0.147 C 
ATOM     12  HN  UNL     1      13.252  19.198 -17.720  1.00  0.00     0.160 HD
ENDBRANCH   8  10
ENDBRANCH   1   8
TORSDOF 2
ENDMDL
MODEL 20
REMARK VINA RESULT:    -3.680      4.097      5.343
REMARK INTER + INTRA:          -4.188
REMARK INTER:                  -4.128
REMARK INTRA:                  -0.060
REMARK UNBOUND:                -0.078
REMARK  2 active torsions:
REMARK  status: ('A' for Active; 'I' for Inactive)
REMARK    1  A    between atoms: C_2  and  C_3 
REMARK    2  A    between atoms: C_2  and  N_8 
ROOT
HETATM    1  C   UNL     1      10.551  29.423  -5.097  1.00  0.00     0.017 A 
HETATM    2  C   UNL     1      10.905  28.667  -3.994  1.00  0.00     0.102 A 
HETATM    3  C   UNL     1      11.994  27.153  -5.320  1.00  0.00     0.087 A 
HETATM    4  C   UNL     1      11.675  27.860  -6.469  1.00  0.00     0.018 A 
HETATM    5  C   UNL     1      10.933  29.020  -6.358  1.00  0.00     0.017 A 
HETATM    6  N   UNL     1      11.614  27.555  -4.118  1.00  0.00    -0.374 N 
ATOM      7  HN  UNL     1      11.865  27.013  -3.292  1.00  0.00     0.164 HD
ENDROOT
BRANCH   1   8
HETATM    8  C   UNL     1       9.743  30.684  -4.908  1.00  0.00     0.107 C 
HETATM    9  S   UNL     1       9.928  31.981  -5.843  1.00  0.00    -0.060 SA
BRANCH   8  10
HETATM   10  N   UNL     1       8.804  30.617  -3.828  1.00  0.00    -0.385 N 
HETATM   11  C   UNL     1       7.955  31.745  -3.524  1.00  0.00     0.147 C 
ATOM     12  HN  UNL     1       8.735  29.766  -3.270  1.00  0.00     0.160 HD
ENDBRANCH   8  10
ENDBRANCH   1   8
TORSDOF 2
ENDMDL
