REMARK  6 active torsions:
REMARK  status: ('A' for Active; 'I' for Inactive)
REMARK    1  A    between atoms: C_1  and  C_20 
REMARK    2  A    between atoms: C_4  and  N_23 
REMARK       I    between atoms: C_5  and  N_23 
REMARK    3  A    between atoms: C_5  and  O_25 
REMARK    4  A    between atoms: C_12  and  N_13 
REMARK    5  A    between atoms: N_13  and  S_15 
REMARK    6  A    between atoms: O_25  and  C_26 
ROOT
HETATM    1  N   UNL     1       8.553   7.432  23.050  1.00  0.00    -0.290 N 
ATOM      2  HN  UNL     1       9.562   7.566  23.109  1.00  0.00     0.187 HD
HETATM    3  C   UNL     1       5.823   7.062  22.974  1.00  0.00     0.086 A 
HETATM    4  C   UNL     1       6.431   8.051  22.200  1.00  0.00     0.065 A 
HETATM    5  C   UNL     1       9.959   5.462  24.982  1.00  0.00     0.092 C 
HETATM    6  C   UNL     1       7.833   8.186  22.239  1.00  0.00     0.061 A 
HETATM    7  N   UNL     1       7.931   6.452  23.826  1.00  0.00    -0.223 N 
HETATM    8  C   UNL     1       6.640   6.265  23.797  1.00  0.00     0.170 A 
HETATM    9  N   UNL     1       6.309   5.263  24.651  1.00  0.00    -0.281 N 
ATOM     10  HN  UNL     1       5.373   4.908  24.847  1.00  0.00     0.188 HD
HETATM   11  N   UNL     1       7.490   4.825  25.198  1.00  0.00    -0.286 N 
ATOM     12  HN  UNL     1       7.596   4.068  25.873  1.00  0.00     0.188 HD
HETATM   13  C   UNL     1       8.466   5.563  24.691  1.00  0.00     0.116 A 
ENDROOT
BRANCH   6  14
HETATM   14  C   UNL     1       8.421   9.223  21.530  1.00  0.00    -0.006 A 
HETATM   15  C   UNL     1       7.988   9.643  20.282  1.00  0.00     0.014 A 
HETATM   16  C   UNL     1       8.578  10.743  19.670  1.00  0.00     0.010 A 
HETATM   17  C   UNL     1       9.586  11.428  20.322  1.00  0.00    -0.035 A 
HETATM   18  C   UNL     1       9.999  11.034  21.580  1.00  0.00     0.049 A 
HETATM   19  C   UNL     1      10.240  12.647  19.678  1.00  0.00     0.050 C 
HETATM   20  C   UNL     1       9.422   9.928  22.194  1.00  0.00     0.044 A 
BRANCH  18  21
HETATM   21  N   UNL     1      11.061  11.806  22.200  1.00  0.00    -0.284 N 
ATOM     22  HN  UNL     1      11.689  12.334  21.594  1.00  0.00     0.178 HD
BRANCH  21  23
HETATM   23  S   UNL     1      11.318  11.880  23.877  1.00  0.00     0.227 S 
HETATM   24  C   UNL     1      12.334  10.452  24.329  1.00  0.00     0.186 C 
HETATM   25  O   UNL     1      11.975  13.133  24.244  1.00  0.00    -0.206 OA
HETATM   26  O   UNL     1      10.061  11.828  24.603  1.00  0.00    -0.206 OA
ENDBRANCH  21  23
ENDBRANCH  18  21
ENDBRANCH   6  14
BRANCH   3  27
HETATM   27  N   UNL     1       4.407   6.755  23.021  1.00  0.00    -0.299 N 
HETATM   28  C   UNL     1       3.374   7.468  22.318  1.00  0.00     0.365 C 
HETATM   29  O   UNL     1       3.615   8.376  21.602  1.00  0.00    -0.238 OA
ATOM     30  HN  UNL     1       4.119   5.967  23.601  1.00  0.00     0.171 HD
BRANCH  28  31
HETATM   31  O   UNL     1       2.066   7.048  22.524  1.00  0.00    -0.304 OA
BRANCH  31  32
HETATM   32  C   UNL     1       1.123   7.738  21.737  1.00  0.00     0.176 C 
HETATM   33  C   UNL     1      -0.089   8.020  22.617  1.00  0.00     0.034 C 
ENDBRANCH  31  32
ENDBRANCH  28  31
ENDBRANCH   3  27
TORSDOF 6
