REMARK  6 active torsions:
REMARK  status: ('A' for Active; 'I' for Inactive)
REMARK    1  A    between atoms: C_1  and  C_19 
REMARK    2  A    between atoms: C_4  and  N_22 
REMARK       I    between atoms: C_5  and  N_22 
REMARK    3  A    between atoms: C_5  and  O_23 
REMARK    4  A    between atoms: C_12  and  N_13 
REMARK    5  A    between atoms: N_13  and  S_14 
REMARK    6  A    between atoms: O_23  and  C_24 
ROOT
HETATM    1  N   UNL     1       0.537  -0.852   0.965  1.00  0.00    -0.290 N 
ATOM      2  HN  UNL     1       1.555  -0.858   0.904  1.00  0.00     0.187 HD
HETATM    3  C   UNL     1      -2.244  -0.864   1.219  1.00  0.00     0.086 A 
HETATM    4  C   UNL     1      -1.633  -0.459   0.017  1.00  0.00     0.065 A 
HETATM    5  C   UNL     1       1.892  -1.713   3.577  1.00  0.00     0.092 C 
HETATM    6  C   UNL     1      -0.218  -0.474  -0.110  1.00  0.00     0.061 A 
HETATM    7  N   UNL     1      -0.072  -1.211   2.090  1.00  0.00    -0.223 N 
HETATM    8  C   UNL     1      -1.392  -1.230   2.262  1.00  0.00     0.170 A 
HETATM    9  N   UNL     1      -1.714  -1.578   3.524  1.00  0.00    -0.281 N 
ATOM     10  HN  UNL     1      -2.652  -1.657   3.916  1.00  0.00     0.188 HD
HETATM   11  N   UNL     1      -0.562  -1.798   4.158  1.00  0.00    -0.286 N 
ATOM     12  HN  UNL     1      -0.454  -2.089   5.130  1.00  0.00     0.188 HD
HETATM   13  C   UNL     1       0.437  -1.564   3.276  1.00  0.00     0.116 A 
ENDROOT
BRANCH   6  14
HETATM   14  C   UNL     1       0.461  -0.064  -1.366  1.00  0.00    -0.006 A 
HETATM   15  C   UNL     1       1.750   0.490  -1.312  1.00  0.00     0.044 A 
HETATM   16  C   UNL     1       2.433   0.867  -2.484  1.00  0.00     0.049 A 
HETATM   17  C   UNL     1       1.799   0.691  -3.736  1.00  0.00    -0.035 A 
HETATM   18  C   UNL     1       0.509   0.140  -3.787  1.00  0.00     0.010 A 
HETATM   19  C   UNL     1       2.483   1.077  -5.020  1.00  0.00     0.050 C 
HETATM   20  C   UNL     1      -0.150  -0.241  -2.618  1.00  0.00     0.014 A 
BRANCH  16  21
HETATM   21  N   UNL     1       3.748   1.449  -2.403  1.00  0.00    -0.284 N 
HETATM   22  H   UNL     1       4.095   2.061  -3.174  1.00  0.00     0.178 HD
BRANCH  21  23
HETATM   23  S   UNL     1       4.893   1.048  -1.161  1.00  0.00     0.227 S 
HETATM   24  C   UNL     1       4.973  -0.717  -0.940  1.00  0.00     0.186 C 
HETATM   25  O   UNL     1       6.252   1.536  -1.576  1.00  0.00    -0.206 OA
HETATM   26  O   UNL     1       4.506   1.717   0.128  1.00  0.00    -0.206 OA
ENDBRANCH  21  23
ENDBRANCH  16  21
ENDBRANCH   6  14
BRANCH   3  27
HETATM   27  N   UNL     1      -3.672  -0.821   1.361  1.00  0.00    -0.299 N 
HETATM   28  C   UNL     1      -4.441  -1.842   2.009  1.00  0.00     0.365 C 
HETATM   29  O   UNL     1      -3.901  -2.932   2.346  1.00  0.00    -0.238 OA
HETATM   30  H   UNL     1      -4.197  -0.071   0.856  1.00  0.00     0.171 HD
BRANCH  28  31
HETATM   31  O   UNL     1      -5.805  -1.628   2.232  1.00  0.00    -0.304 OA
BRANCH  31  32
HETATM   32  C   UNL     1      -6.669  -2.603   2.813  1.00  0.00     0.176 C 
HETATM   33  C   UNL     1      -7.018  -3.686   1.798  1.00  0.00     0.034 C 
ENDBRANCH  31  32
ENDBRANCH  28  31
ENDBRANCH   3  27
TORSDOF 6
