MODEL 1
REMARK VINA RESULT:    -9.264      0.000      0.000
REMARK INTER + INTRA:         -15.796
REMARK INTER:                 -14.679
REMARK INTRA:                  -1.117
REMARK UNBOUND:                -1.117
REMARK  11 active torsions:
REMARK  status: ('A' for Active; 'I' for Inactive)
REMARK    1  A    between atoms: C_1  and  O_32 
REMARK    2  A    between atoms: C_2  and  C_8 
REMARK    3  A    between atoms: C_2  and  C_9 
REMARK    4  A    between atoms: C_6  and  N_31 
REMARK    5  A    between atoms: C_8  and  O_32 
REMARK    6  A    between atoms: C_9  and  O_33 
REMARK    7  A    between atoms: C_10  and  O_33 
REMARK    8  A    between atoms: C_14  and  C_15 
REMARK    9  A    between atoms: C_16  and  N_23 
REMARK   10  A    between atoms: C_17  and  N_28 
REMARK   11  A    between atoms: C_18  and  C_20 
ROOT
HETATM    1  C   UNL     1       8.356   2.009  12.898  1.00  0.00     0.178 C 
ENDROOT
BRANCH   1   2
HETATM    2  C   UNL     1       8.619   0.535  12.604  1.00  0.00     0.053 C 
BRANCH   2   3
HETATM    3  C   UNL     1       7.827  -0.340  13.563  1.00  0.00     0.178 C 
BRANCH   3   4
HETATM    4  O   UNL     1       6.423  -0.008  13.336  1.00  0.00    -0.349 OA
BRANCH   4   5
HETATM    5  C   UNL     1       5.545  -0.136  14.400  1.00  0.00     0.090 A 
HETATM    6  C   UNL     1       4.230   0.305  14.211  1.00  0.00     0.044 A 
HETATM    7  C   UNL     1       3.356   0.194  15.282  1.00  0.00     0.027 A 
HETATM    8  C   UNL     1       3.771  -0.306  16.507  1.00  0.00     0.009 A 
HETATM    9  C   UNL     1       5.070  -0.732  16.698  1.00  0.00    -0.059 A 
HETATM   10  C   UNL     1       5.525  -1.297  18.034  1.00  0.00     0.048 C 
HETATM   11  C   UNL     1       5.949  -0.639  15.618  1.00  0.00     0.045 A 
BRANCH   6  12
HETATM   12  N   UNL     1       3.831   0.771  12.977  1.00  0.00    -0.279 NA
HETATM   13  C   UNL     1       3.226   2.096  12.698  1.00  0.00     0.112 A 
HETATM   14  C   UNL     1       2.178   1.405  11.761  1.00  0.00     0.113 A 
HETATM   15  C   UNL     1       2.885   0.062  12.046  1.00  0.00     0.112 A 
BRANCH  14  16
HETATM   16  C   UNL     1       2.319   1.917  10.296  1.00  0.00     0.179 C 
HETATM   17  O   UNL     1       1.346   1.752   9.541  1.00  0.00    -0.648 OA
HETATM   18  O   UNL     1       3.427   2.451   9.969  1.00  0.00    -0.648 OA
ENDBRANCH  14  16
ENDBRANCH   6  12
ENDBRANCH   4   5
ENDBRANCH   3   4
ENDBRANCH   2   3
ENDBRANCH   1   2
BRANCH   1  19
HETATM   19  O   UNL     1       8.857   2.250  14.241  1.00  0.00    -0.345 OA
BRANCH  19  20
HETATM   20  C   UNL     1       8.738   3.547  14.722  1.00  0.00     0.136 A 
HETATM   21  C   UNL     1       9.748   4.513  14.442  1.00  0.00     0.150 A 
HETATM   22  N   UNL     1       9.629   5.762  14.930  1.00  0.00    -0.174 N 
HETATM   23  C   UNL     1       8.552   6.047  15.661  1.00  0.00     0.677 A 
ATOM     24  HN  UNL     1      10.341   6.468  14.745  1.00  0.00     0.186 HD
HETATM   25  N   UNL     1       7.596   5.180  15.976  1.00  0.00    -0.193 N 
HETATM   26  C   UNL     1       7.685   3.922  15.497  1.00  0.00     0.063 A 
ATOM     27  HN  UNL     1       6.812   5.460  16.566  1.00  0.00     0.184 HD
BRANCH  21  28
HETATM   28  N   UNL     1      10.815   4.226  13.710  1.00  0.00    -0.383 N 
ATOM     29  HN2 UNL     1      11.698   4.726  13.818  1.00  0.00     0.157 HD
ATOM     30  HN1 UNL     1      10.739   3.479  13.019  1.00  0.00     0.157 HD
ENDBRANCH  21  28
BRANCH  23  31
HETATM   31  N   UNL     1       8.411   7.307  16.148  1.00  0.00    -0.234 N 
ATOM     32  HN2 UNL     1       7.692   7.884  15.712  1.00  0.00     0.174 HD
ATOM     33  HN1 UNL     1       9.008   7.603  16.920  1.00  0.00     0.174 HD
ENDBRANCH  23  31
BRANCH  26  34
HETATM   34  C   UNL     1       6.550   2.992  15.858  1.00  0.00     0.056 C 
HETATM   35  C   UNL     1       5.191   3.627  15.482  1.00  0.00     0.011 C 
ENDBRANCH  26  34
ENDBRANCH  19  20
ENDBRANCH   1  19
TORSDOF 11
ENDMDL
MODEL 2
REMARK VINA RESULT:    -8.595      1.729      2.218
REMARK INTER + INTRA:         -14.736
REMARK INTER:                 -14.005
REMARK INTRA:                  -0.731
REMARK UNBOUND:                -1.117
REMARK  11 active torsions:
REMARK  status: ('A' for Active; 'I' for Inactive)
REMARK    1  A    between atoms: C_1  and  O_32 
REMARK    2  A    between atoms: C_2  and  C_8 
REMARK    3  A    between atoms: C_2  and  C_9 
REMARK    4  A    between atoms: C_6  and  N_31 
REMARK    5  A    between atoms: C_8  and  O_32 
REMARK    6  A    between atoms: C_9  and  O_33 
REMARK    7  A    between atoms: C_10  and  O_33 
REMARK    8  A    between atoms: C_14  and  C_15 
REMARK    9  A    between atoms: C_16  and  N_23 
REMARK   10  A    between atoms: C_17  and  N_28 
REMARK   11  A    between atoms: C_18  and  C_20 
ROOT
HETATM    1  C   UNL     1       8.566   2.130  12.748  1.00  0.00     0.178 C 
ENDROOT
BRANCH   1   2
HETATM    2  C   UNL     1       8.870   0.670  12.425  1.00  0.00     0.053 C 
BRANCH   2   3
HETATM    3  C   UNL     1       8.736  -0.183  13.676  1.00  0.00     0.178 C 
BRANCH   3   4
HETATM    4  O   UNL     1       7.302  -0.340  13.899  1.00  0.00    -0.349 OA
BRANCH   4   5
HETATM    5  C   UNL     1       6.889  -1.267  14.842  1.00  0.00     0.090 A 
HETATM    6  C   UNL     1       5.605  -1.115  15.381  1.00  0.00     0.044 A 
HETATM    7  C   UNL     1       5.199  -2.032  16.337  1.00  0.00     0.027 A 
HETATM    8  C   UNL     1       6.038  -3.047  16.771  1.00  0.00     0.009 A 
HETATM    9  C   UNL     1       7.308  -3.192  16.249  1.00  0.00    -0.059 A 
HETATM   10  C   UNL     1       8.225  -4.314  16.710  1.00  0.00     0.048 C 
HETATM   11  C   UNL     1       7.715  -2.282  15.272  1.00  0.00     0.045 A 
BRANCH   6  12
HETATM   12  N   UNL     1       4.777  -0.117  14.913  1.00  0.00    -0.279 NA
HETATM   13  C   UNL     1       3.648   0.498  15.653  1.00  0.00     0.112 A 
HETATM   14  C   UNL     1       2.773   0.419  14.356  1.00  0.00     0.113 A 
HETATM   15  C   UNL     1       4.001  -0.167  13.625  1.00  0.00     0.112 A 
BRANCH  14  16
HETATM   16  C   UNL     1       2.351   1.842  13.882  1.00  0.00     0.179 C 
HETATM   17  O   UNL     1       1.183   2.195  14.116  1.00  0.00    -0.648 OA
HETATM   18  O   UNL     1       3.226   2.538  13.273  1.00  0.00    -0.648 OA
ENDBRANCH  14  16
ENDBRANCH   6  12
ENDBRANCH   4   5
ENDBRANCH   3   4
ENDBRANCH   2   3
ENDBRANCH   1   2
BRANCH   1  19
HETATM   19  O   UNL     1       9.054   2.356  14.098  1.00  0.00    -0.345 OA
BRANCH  19  20
HETATM   20  C   UNL     1       8.881   3.634  14.613  1.00  0.00     0.136 A 
HETATM   21  C   UNL     1       9.901   4.617  14.456  1.00  0.00     0.150 A 
HETATM   22  N   UNL     1       9.727   5.846  14.976  1.00  0.00    -0.174 N 
HETATM   23  C   UNL     1       8.589   6.097  15.620  1.00  0.00     0.677 A 
ATOM     24  HN  UNL     1      10.446   6.564  14.879  1.00  0.00     0.186 HD
HETATM   25  N   UNL     1       7.617   5.212  15.820  1.00  0.00    -0.193 N 
HETATM   26  C   UNL     1       7.761   3.973  15.306  1.00  0.00     0.063 A 
ATOM     27  HN  UNL     1       6.783   5.465  16.349  1.00  0.00     0.184 HD
BRANCH  21  28
HETATM   28  N   UNL     1      11.031   4.364  13.810  1.00  0.00    -0.383 N 
ATOM     29  HN2 UNL     1      11.044   3.907  12.898  1.00  0.00     0.157 HD
ATOM     30  HN1 UNL     1      11.909   4.639  14.249  1.00  0.00     0.157 HD
ENDBRANCH  21  28
BRANCH  23  31
HETATM   31  N   UNL     1       8.392   7.337  16.138  1.00  0.00    -0.234 N 
ATOM     32  HN2 UNL     1       8.452   8.116  15.483  1.00  0.00     0.174 HD
ATOM     33  HN1 UNL     1       8.185   7.425  17.132  1.00  0.00     0.174 HD
ENDBRANCH  23  31
BRANCH  26  34
HETATM   34  C   UNL     1       6.608   3.022  15.534  1.00  0.00     0.056 C 
HETATM   35  C   UNL     1       5.301   3.810  15.783  1.00  0.00     0.011 C 
ENDBRANCH  26  34
ENDBRANCH  19  20
ENDBRANCH   1  19
TORSDOF 11
ENDMDL
MODEL 3
REMARK VINA RESULT:    -8.545      1.719      4.380
REMARK INTER + INTRA:         -14.657
REMARK INTER:                 -14.092
REMARK INTRA:                  -0.565
REMARK UNBOUND:                -1.117
REMARK  11 active torsions:
REMARK  status: ('A' for Active; 'I' for Inactive)
REMARK    1  A    between atoms: C_1  and  O_32 
REMARK    2  A    between atoms: C_2  and  C_8 
REMARK    3  A    between atoms: C_2  and  C_9 
REMARK    4  A    between atoms: C_6  and  N_31 
REMARK    5  A    between atoms: C_8  and  O_32 
REMARK    6  A    between atoms: C_9  and  O_33 
REMARK    7  A    between atoms: C_10  and  O_33 
REMARK    8  A    between atoms: C_14  and  C_15 
REMARK    9  A    between atoms: C_16  and  N_23 
REMARK   10  A    between atoms: C_17  and  N_28 
REMARK   11  A    between atoms: C_18  and  C_20 
ROOT
HETATM    1  C   UNL     1       8.628   2.185  12.870  1.00  0.00     0.178 C 
ENDROOT
BRANCH   1   2
HETATM    2  C   UNL     1       8.758   0.682  12.643  1.00  0.00     0.053 C 
BRANCH   2   3
HETATM    3  C   UNL     1       7.404   0.085  12.292  1.00  0.00     0.178 C 
BRANCH   3   4
HETATM    4  O   UNL     1       6.415   0.923  12.964  1.00  0.00    -0.349 OA
BRANCH   4   5
HETATM    5  C   UNL     1       5.075   0.667  12.722  1.00  0.00     0.090 A 
HETATM    6  C   UNL     1       4.441  -0.283  13.531  1.00  0.00     0.044 A 
HETATM    7  C   UNL     1       3.105  -0.552  13.277  1.00  0.00     0.027 A 
HETATM    8  C   UNL     1       2.424   0.071  12.243  1.00  0.00     0.009 A 
HETATM    9  C   UNL     1       3.050   1.001  11.437  1.00  0.00    -0.059 A 
HETATM   10  C   UNL     1       2.303   1.699  10.312  1.00  0.00     0.048 C 
HETATM   11  C   UNL     1       4.391   1.288  11.700  1.00  0.00     0.045 A 
BRANCH   6  12
HETATM   12  N   UNL     1       5.128  -0.868  14.573  1.00  0.00    -0.279 NA
HETATM   13  C   UNL     1       5.348  -2.322  14.767  1.00  0.00     0.112 A 
HETATM   14  C   UNL     1       5.005  -2.158  16.286  1.00  0.00     0.113 A 
HETATM   15  C   UNL     1       4.845  -0.643  16.033  1.00  0.00     0.112 A 
BRANCH  14  16
HETATM   16  C   UNL     1       6.226  -2.544  17.175  1.00  0.00     0.179 C 
HETATM   17  O   UNL     1       7.187  -3.095  16.612  1.00  0.00    -0.648 OA
HETATM   18  O   UNL     1       6.146  -2.286  18.419  1.00  0.00    -0.648 OA
ENDBRANCH  14  16
ENDBRANCH   6  12
ENDBRANCH   4   5
ENDBRANCH   3   4
ENDBRANCH   2   3
ENDBRANCH   1   2
BRANCH   1  19
HETATM   19  O   UNL     1       9.061   2.427  14.236  1.00  0.00    -0.345 OA
BRANCH  19  20
HETATM   20  C   UNL     1       8.898   3.720  14.717  1.00  0.00     0.136 A 
HETATM   21  C   UNL     1       9.855   4.729  14.403  1.00  0.00     0.150 A 
HETATM   22  N   UNL     1       9.694   5.973  14.891  1.00  0.00    -0.174 N 
HETATM   23  C   UNL     1       8.628   6.213  15.653  1.00  0.00     0.677 A 
ATOM     24  HN  UNL     1      10.368   6.710  14.683  1.00  0.00     0.186 HD
HETATM   25  N   UNL     1       7.721   5.305  15.999  1.00  0.00    -0.193 N 
HETATM   26  C   UNL     1       7.853   4.050  15.522  1.00  0.00     0.063 A 
ATOM     27  HN  UNL     1       6.944   5.552  16.612  1.00  0.00     0.184 HD
BRANCH  21  28
HETATM   28  N   UNL     1      10.912   4.487  13.640  1.00  0.00    -0.383 N 
ATOM     29  HN2 UNL     1      10.983   4.837  12.684  1.00  0.00     0.157 HD
ATOM     30  HN1 UNL     1      11.672   3.931  14.032  1.00  0.00     0.157 HD
ENDBRANCH  21  28
BRANCH  23  31
HETATM   31  N   UNL     1       8.444   7.467  16.141  1.00  0.00    -0.234 N 
ATOM     32  HN2 UNL     1       7.787   8.059  15.634  1.00  0.00     0.174 HD
ATOM     33  HN1 UNL     1       8.951   7.744  16.981  1.00  0.00     0.174 HD
ENDBRANCH  23  31
BRANCH  26  34
HETATM   34  C   UNL     1       6.772   3.071  15.920  1.00  0.00     0.056 C 
HETATM   35  C   UNL     1       5.439   3.428  15.222  1.00  0.00     0.011 C 
ENDBRANCH  26  34
ENDBRANCH  19  20
ENDBRANCH   1  19
TORSDOF 11
ENDMDL
MODEL 4
REMARK VINA RESULT:    -7.990      2.565      5.320
REMARK INTER + INTRA:         -13.777
REMARK INTER:                 -13.063
REMARK INTRA:                  -0.715
REMARK UNBOUND:                -1.117
REMARK  11 active torsions:
REMARK  status: ('A' for Active; 'I' for Inactive)
REMARK    1  A    between atoms: C_1  and  O_32 
REMARK    2  A    between atoms: C_2  and  C_8 
REMARK    3  A    between atoms: C_2  and  C_9 
REMARK    4  A    between atoms: C_6  and  N_31 
REMARK    5  A    between atoms: C_8  and  O_32 
REMARK    6  A    between atoms: C_9  and  O_33 
REMARK    7  A    between atoms: C_10  and  O_33 
REMARK    8  A    between atoms: C_14  and  C_15 
REMARK    9  A    between atoms: C_16  and  N_23 
REMARK   10  A    between atoms: C_17  and  N_28 
REMARK   11  A    between atoms: C_18  and  C_20 
ROOT
HETATM    1  C   UNL     1       5.004   2.313  14.382  1.00  0.00     0.178 C 
ENDROOT
BRANCH   1   2
HETATM    2  C   UNL     1       4.000   1.220  14.028  1.00  0.00     0.053 C 
BRANCH   2   3
HETATM    3  C   UNL     1       4.183   0.788  12.582  1.00  0.00     0.178 C 
BRANCH   3   4
HETATM    4  O   UNL     1       4.500  -0.637  12.630  1.00  0.00    -0.349 OA
BRANCH   4   5
HETATM    5  C   UNL     1       3.498  -1.513  13.016  1.00  0.00     0.090 A 
HETATM    6  C   UNL     1       3.845  -2.549  13.891  1.00  0.00     0.044 A 
HETATM    7  C   UNL     1       2.847  -3.435  14.263  1.00  0.00     0.027 A 
HETATM    8  C   UNL     1       1.557  -3.324  13.766  1.00  0.00     0.009 A 
HETATM    9  C   UNL     1       1.215  -2.310  12.894  1.00  0.00    -0.059 A 
HETATM   10  C   UNL     1      -0.202  -2.174  12.360  1.00  0.00     0.048 C 
HETATM   11  C   UNL     1       2.213  -1.404  12.531  1.00  0.00     0.045 A 
BRANCH   6  12
HETATM   12  N   UNL     1       5.126  -2.623  14.396  1.00  0.00    -0.279 NA
HETATM   13  C   UNL     1       5.831  -3.861  14.810  1.00  0.00     0.112 A 
HETATM   14  C   UNL     1       6.345  -3.123  16.092  1.00  0.00     0.113 A 
HETATM   15  C   UNL     1       5.636  -1.849  15.581  1.00  0.00     0.112 A 
BRANCH  14  16
HETATM   16  C   UNL     1       7.902  -3.043  16.100  1.00  0.00     0.179 C 
HETATM   17  O   UNL     1       8.441  -2.397  15.186  1.00  0.00    -0.648 OA
HETATM   18  O   UNL     1       8.513  -3.660  17.030  1.00  0.00    -0.648 OA
ENDBRANCH  14  16
ENDBRANCH   6  12
ENDBRANCH   4   5
ENDBRANCH   3   4
ENDBRANCH   2   3
ENDBRANCH   1   2
BRANCH   1  19
HETATM   19  O   UNL     1       6.249   1.633  14.694  1.00  0.00    -0.345 OA
BRANCH  19  20
HETATM   20  C   UNL     1       7.417   2.360  14.498  1.00  0.00     0.136 A 
HETATM   21  C   UNL     1       7.835   3.321  15.465  1.00  0.00     0.150 A 
HETATM   22  N   UNL     1       8.959   4.031  15.254  1.00  0.00    -0.174 N 
HETATM   23  C   UNL     1       9.646   3.797  14.136  1.00  0.00     0.677 A 
ATOM     24  HN  UNL     1       9.276   4.727  15.929  1.00  0.00     0.186 HD
HETATM   25  N   UNL     1       9.289   2.934  13.191  1.00  0.00    -0.193 N 
HETATM   26  C   UNL     1       8.169   2.204  13.376  1.00  0.00     0.063 A 
ATOM     27  HN  UNL     1       9.848   2.826  12.345  1.00  0.00     0.184 HD
BRANCH  21  28
HETATM   28  N   UNL     1       7.151   3.547  16.577  1.00  0.00    -0.383 N 
ATOM     29  HN2 UNL     1       6.209   3.940  16.565  1.00  0.00     0.157 HD
ATOM     30  HN1 UNL     1       7.591   3.318  17.469  1.00  0.00     0.157 HD
ENDBRANCH  21  28
BRANCH  23  31
HETATM   31  N   UNL     1      10.790   4.495  13.916  1.00  0.00    -0.234 N 
ATOM     32  HN2 UNL     1      11.531   4.380  14.607  1.00  0.00     0.174 HD
ATOM     33  HN1 UNL     1      10.856   5.075  13.080  1.00  0.00     0.174 HD
ENDBRANCH  23  31
BRANCH  26  34
HETATM   34  C   UNL     1       7.833   1.214  12.284  1.00  0.00     0.056 C 
HETATM   35  C   UNL     1       8.635  -0.094  12.477  1.00  0.00     0.011 C 
ENDBRANCH  26  34
ENDBRANCH  19  20
ENDBRANCH   1  19
TORSDOF 11
ENDMDL
MODEL 5
REMARK VINA RESULT:    -7.678      3.545      6.612
REMARK INTER + INTRA:         -13.283
REMARK INTER:                 -12.533
REMARK INTRA:                  -0.750
REMARK UNBOUND:                -1.117
REMARK  11 active torsions:
REMARK  status: ('A' for Active; 'I' for Inactive)
REMARK    1  A    between atoms: C_1  and  O_32 
REMARK    2  A    between atoms: C_2  and  C_8 
REMARK    3  A    between atoms: C_2  and  C_9 
REMARK    4  A    between atoms: C_6  and  N_31 
REMARK    5  A    between atoms: C_8  and  O_32 
REMARK    6  A    between atoms: C_9  and  O_33 
REMARK    7  A    between atoms: C_10  and  O_33 
REMARK    8  A    between atoms: C_14  and  C_15 
REMARK    9  A    between atoms: C_16  and  N_23 
REMARK   10  A    between atoms: C_17  and  N_28 
REMARK   11  A    between atoms: C_18  and  C_20 
ROOT
HETATM    1  C   UNL     1       6.942  -1.420  14.338  1.00  0.00     0.178 C 
ENDROOT
BRANCH   1   2
HETATM    2  C   UNL     1       8.354  -0.874  14.145  1.00  0.00     0.053 C 
BRANCH   2   3
HETATM    3  C   UNL     1       8.493  -0.254  12.764  1.00  0.00     0.178 C 
BRANCH   3   4
HETATM    4  O   UNL     1       7.476   0.792  12.694  1.00  0.00    -0.349 OA
BRANCH   4   5
HETATM    5  C   UNL     1       7.644   1.915  13.489  1.00  0.00     0.090 A 
HETATM    6  C   UNL     1       6.548   2.338  14.250  1.00  0.00     0.044 A 
HETATM    7  C   UNL     1       6.710   3.472  15.031  1.00  0.00     0.027 A 
HETATM    8  C   UNL     1       7.901   4.182  15.040  1.00  0.00     0.009 A 
HETATM    9  C   UNL     1       8.979   3.772  14.282  1.00  0.00    -0.059 A 
HETATM   10  C   UNL     1      10.292   4.537  14.302  1.00  0.00     0.048 C 
HETATM   11  C   UNL     1       8.827   2.620  13.507  1.00  0.00     0.045 A 
BRANCH   6  12
HETATM   12  N   UNL     1       5.383   1.601  14.249  1.00  0.00    -0.279 NA
HETATM   13  C   UNL     1       4.277   1.716  13.268  1.00  0.00     0.112 A 
HETATM   14  C   UNL     1       3.245   1.648  14.444  1.00  0.00     0.113 A 
HETATM   15  C   UNL     1       4.436   1.474  15.411  1.00  0.00     0.112 A 
BRANCH  14  16
HETATM   16  C   UNL     1       2.329   0.394  14.307  1.00  0.00     0.179 C 
HETATM   17  O   UNL     1       1.336   0.332  15.052  1.00  0.00    -0.648 OA
HETATM   18  O   UNL     1       2.671  -0.489  13.456  1.00  0.00    -0.648 OA
ENDBRANCH  14  16
ENDBRANCH   6  12
ENDBRANCH   4   5
ENDBRANCH   3   4
ENDBRANCH   2   3
ENDBRANCH   1   2
BRANCH   1  19
HETATM   19  O   UNL     1       6.779  -1.626  15.767  1.00  0.00    -0.345 OA
BRANCH  19  20
HETATM   20  C   UNL     1       6.454  -2.913  16.173  1.00  0.00     0.136 A 
HETATM   21  C   UNL     1       7.483  -3.866  16.433  1.00  0.00     0.150 A 
HETATM   22  N   UNL     1       7.153  -5.115  16.809  1.00  0.00    -0.174 N 
HETATM   23  C   UNL     1       5.860  -5.411  16.930  1.00  0.00     0.677 A 
ATOM     24  HN  UNL     1       7.872  -5.815  16.996  1.00  0.00     0.186 HD
HETATM   25  N   UNL     1       4.861  -4.573  16.675  1.00  0.00    -0.193 N 
HETATM   26  C   UNL     1       5.160  -3.311  16.301  1.00  0.00     0.063 A 
ATOM     27  HN  UNL     1       3.891  -4.876  16.761  1.00  0.00     0.184 HD
BRANCH  21  28
HETATM   28  N   UNL     1       8.769  -3.566  16.315  1.00  0.00    -0.383 N 
ATOM     29  HN2 UNL     1       9.282  -3.708  15.445  1.00  0.00     0.157 HD
ATOM     30  HN1 UNL     1       9.250  -3.181  17.128  1.00  0.00     0.157 HD
ENDBRANCH  21  28
BRANCH  23  31
HETATM   31  N   UNL     1       5.512  -6.664  17.323  1.00  0.00    -0.234 N 
ATOM     32  HN2 UNL     1       4.900  -6.731  18.136  1.00  0.00     0.174 HD
ATOM     33  HN1 UNL     1       5.860  -7.459  16.787  1.00  0.00     0.174 HD
ENDBRANCH  23  31
BRANCH  26  34
HETATM   34  C   UNL     1       3.984  -2.393  16.060  1.00  0.00     0.056 C 
HETATM   35  C   UNL     1       3.653  -1.594  17.342  1.00  0.00     0.011 C 
ENDBRANCH  26  34
ENDBRANCH  19  20
ENDBRANCH   1  19
TORSDOF 11
ENDMDL
MODEL 6
REMARK VINA RESULT:    -7.610      2.655      5.363
REMARK INTER + INTRA:         -13.175
REMARK INTER:                 -12.420
REMARK INTRA:                  -0.755
REMARK UNBOUND:                -1.117
REMARK  11 active torsions:
REMARK  status: ('A' for Active; 'I' for Inactive)
REMARK    1  A    between atoms: C_1  and  O_32 
REMARK    2  A    between atoms: C_2  and  C_8 
REMARK    3  A    between atoms: C_2  and  C_9 
REMARK    4  A    between atoms: C_6  and  N_31 
REMARK    5  A    between atoms: C_8  and  O_32 
REMARK    6  A    between atoms: C_9  and  O_33 
REMARK    7  A    between atoms: C_10  and  O_33 
REMARK    8  A    between atoms: C_14  and  C_15 
REMARK    9  A    between atoms: C_16  and  N_23 
REMARK   10  A    between atoms: C_17  and  N_28 
REMARK   11  A    between atoms: C_18  and  C_20 
ROOT
HETATM    1  C   UNL     1       5.954   0.861  14.962  1.00  0.00     0.178 C 
ENDROOT
BRANCH   1   2
HETATM    2  C   UNL     1       4.692   1.143  15.771  1.00  0.00     0.053 C 
BRANCH   2   3
HETATM    3  C   UNL     1       3.457   0.895  14.920  1.00  0.00     0.178 C 
BRANCH   3   4
HETATM    4  O   UNL     1       3.383  -0.552  14.738  1.00  0.00    -0.349 OA
BRANCH   4   5
HETATM    5  C   UNL     1       2.658  -1.286  15.663  1.00  0.00     0.090 A 
HETATM    6  C   UNL     1       3.328  -2.310  16.345  1.00  0.00     0.044 A 
HETATM    7  C   UNL     1       2.599  -3.056  17.257  1.00  0.00     0.027 A 
HETATM    8  C   UNL     1       1.248  -2.823  17.469  1.00  0.00     0.009 A 
HETATM    9  C   UNL     1       0.584  -1.821  16.791  1.00  0.00    -0.059 A 
HETATM   10  C   UNL     1      -0.893  -1.551  17.033  1.00  0.00     0.048 C 
HETATM   11  C   UNL     1       1.318  -1.055  15.884  1.00  0.00     0.045 A 
BRANCH   6  12
HETATM   12  N   UNL     1       4.677  -2.504  16.140  1.00  0.00    -0.279 NA
HETATM   13  C   UNL     1       5.323  -3.773  15.723  1.00  0.00     0.112 A 
HETATM   14  C   UNL     1       6.446  -3.535  16.788  1.00  0.00     0.113 A 
HETATM   15  C   UNL     1       5.759  -2.198  17.139  1.00  0.00     0.112 A 
BRANCH  14  16
HETATM   16  C   UNL     1       7.839  -3.391  16.104  1.00  0.00     0.179 C 
HETATM   17  O   UNL     1       7.896  -2.700  15.072  1.00  0.00    -0.648 OA
HETATM   18  O   UNL     1       8.817  -4.006  16.636  1.00  0.00    -0.648 OA
ENDBRANCH  14  16
ENDBRANCH   6  12
ENDBRANCH   4   5
ENDBRANCH   3   4
ENDBRANCH   2   3
ENDBRANCH   1   2
BRANCH   1  19
HETATM   19  O   UNL     1       6.114   1.986  14.056  1.00  0.00    -0.345 OA
BRANCH  19  20
HETATM   20  C   UNL     1       7.353   2.614  14.061  1.00  0.00     0.136 A 
HETATM   21  C   UNL     1       7.617   3.674  14.977  1.00  0.00     0.150 A 
HETATM   22  N   UNL     1       8.815   4.286  14.959  1.00  0.00    -0.174 N 
HETATM   23  C   UNL     1       9.720   3.864  14.076  1.00  0.00     0.677 A 
ATOM     24  HN  UNL     1       9.025   5.050  15.602  1.00  0.00     0.186 HD
HETATM   25  N   UNL     1       9.518   2.900  13.183  1.00  0.00    -0.193 N 
HETATM   26  C   UNL     1       8.328   2.265  13.180  1.00  0.00     0.063 A 
ATOM     27  HN  UNL     1      10.248   2.647  12.517  1.00  0.00     0.184 HD
BRANCH  21  28
HETATM   28  N   UNL     1       6.715   4.088  15.856  1.00  0.00    -0.383 N 
ATOM     29  HN2 UNL     1       6.300   3.460  16.544  1.00  0.00     0.157 HD
ATOM     30  HN1 UNL     1       6.434   5.068  15.833  1.00  0.00     0.157 HD
ENDBRANCH  21  28
BRANCH  23  31
HETATM   31  N   UNL     1      10.939   4.461  14.056  1.00  0.00    -0.234 N 
ATOM     32  HN2 UNL     1      11.041   5.303  14.623  1.00  0.00     0.174 HD
ATOM     33  HN1 UNL     1      11.681   4.039  13.498  1.00  0.00     0.174 HD
ENDBRANCH  23  31
BRANCH  26  34
HETATM   34  C   UNL     1       8.171   1.154  12.167  1.00  0.00     0.056 C 
HETATM   35  C   UNL     1       8.809  -0.152  12.695  1.00  0.00     0.011 C 
ENDBRANCH  26  34
ENDBRANCH  19  20
ENDBRANCH   1  19
TORSDOF 11
ENDMDL
MODEL 7
REMARK VINA RESULT:    -7.578      2.417      5.366
REMARK INTER + INTRA:         -13.124
REMARK INTER:                 -12.524
REMARK INTRA:                  -0.601
REMARK UNBOUND:                -1.117
REMARK  11 active torsions:
REMARK  status: ('A' for Active; 'I' for Inactive)
REMARK    1  A    between atoms: C_1  and  O_32 
REMARK    2  A    between atoms: C_2  and  C_8 
REMARK    3  A    between atoms: C_2  and  C_9 
REMARK    4  A    between atoms: C_6  and  N_31 
REMARK    5  A    between atoms: C_8  and  O_32 
REMARK    6  A    between atoms: C_9  and  O_33 
REMARK    7  A    between atoms: C_10  and  O_33 
REMARK    8  A    between atoms: C_14  and  C_15 
REMARK    9  A    between atoms: C_16  and  N_23 
REMARK   10  A    between atoms: C_17  and  N_28 
REMARK   11  A    between atoms: C_18  and  C_20 
ROOT
HETATM    1  C   UNL     1       5.246   1.724  13.691  1.00  0.00     0.178 C 
ENDROOT
BRANCH   1   2
HETATM    2  C   UNL     1       4.172   2.310  14.602  1.00  0.00     0.053 C 
BRANCH   2   3
HETATM    3  C   UNL     1       2.879   2.508  13.828  1.00  0.00     0.178 C 
BRANCH   3   4
HETATM    4  O   UNL     1       2.059   1.334  14.117  1.00  0.00    -0.349 OA
BRANCH   4   5
HETATM    5  C   UNL     1       1.806   0.448  13.082  1.00  0.00     0.090 A 
HETATM    6  C   UNL     1       2.208  -0.882  13.256  1.00  0.00     0.044 A 
HETATM    7  C   UNL     1       1.971  -1.764  12.214  1.00  0.00     0.027 A 
HETATM    8  C   UNL     1       1.385  -1.346  11.029  1.00  0.00     0.009 A 
HETATM    9  C   UNL     1       0.997  -0.033  10.851  1.00  0.00    -0.059 A 
HETATM   10  C   UNL     1       0.339   0.427   9.560  1.00  0.00     0.048 C 
HETATM   11  C   UNL     1       1.218   0.856  11.905  1.00  0.00     0.045 A 
BRANCH   6  12
HETATM   12  N   UNL     1       2.761  -1.282  14.453  1.00  0.00    -0.279 NA
HETATM   13  C   UNL     1       4.167  -1.703  14.668  1.00  0.00     0.112 A 
HETATM   14  C   UNL     1       3.661  -2.896  15.548  1.00  0.00     0.113 A 
HETATM   15  C   UNL     1       2.223  -2.377  15.334  1.00  0.00     0.112 A 
BRANCH  14  16
HETATM   16  C   UNL     1       4.188  -2.771  17.009  1.00  0.00     0.179 C 
HETATM   17  O   UNL     1       3.664  -1.904  17.729  1.00  0.00    -0.648 OA
HETATM   18  O   UNL     1       5.130  -3.552  17.359  1.00  0.00    -0.648 OA
ENDBRANCH  14  16
ENDBRANCH   6  12
ENDBRANCH   4   5
ENDBRANCH   3   4
ENDBRANCH   2   3
ENDBRANCH   1   2
BRANCH   1  19
HETATM   19  O   UNL     1       6.385   1.431  14.544  1.00  0.00    -0.345 OA
BRANCH  19  20
HETATM   20  C   UNL     1       7.505   2.236  14.380  1.00  0.00     0.136 A 
HETATM   21  C   UNL     1       7.807   3.251  15.335  1.00  0.00     0.150 A 
HETATM   22  N   UNL     1       8.885   4.036  15.153  1.00  0.00    -0.174 N 
HETATM   23  C   UNL     1       9.638   3.824  14.075  1.00  0.00     0.677 A 
ATOM     24  HN  UNL     1       9.118   4.771  15.821  1.00  0.00     0.186 HD
HETATM   25  N   UNL     1       9.389   2.913  13.140  1.00  0.00    -0.193 N 
HETATM   26  C   UNL     1       8.317   2.107  13.297  1.00  0.00     0.063 A 
ATOM     27  HN  UNL     1       9.994   2.824  12.324  1.00  0.00     0.184 HD
BRANCH  21  28
HETATM   28  N   UNL     1       7.056   3.455  16.408  1.00  0.00    -0.383 N 
ATOM     29  HN2 UNL     1       7.296   4.152  17.113  1.00  0.00     0.157 HD
ATOM     30  HN1 UNL     1       6.215   2.890  16.523  1.00  0.00     0.157 HD
ENDBRANCH  21  28
BRANCH  23  31
HETATM   31  N   UNL     1      10.737   4.598  13.886  1.00  0.00    -0.234 N 
ATOM     32  HN2 UNL     1      11.583   4.119  13.577  1.00  0.00     0.174 HD
ATOM     33  HN1 UNL     1      10.661   5.603  14.044  1.00  0.00     0.174 HD
ENDBRANCH  23  31
BRANCH  26  34
HETATM   34  C   UNL     1       8.106   1.067  12.221  1.00  0.00     0.056 C 
HETATM   35  C   UNL     1       8.762  -0.272  12.630  1.00  0.00     0.011 C 
ENDBRANCH  26  34
ENDBRANCH  19  20
ENDBRANCH   1  19
TORSDOF 11
ENDMDL
MODEL 8
REMARK VINA RESULT:    -7.538      2.709      5.396
REMARK INTER + INTRA:         -13.061
REMARK INTER:                 -12.394
REMARK INTRA:                  -0.667
REMARK UNBOUND:                -1.117
REMARK  11 active torsions:
REMARK  status: ('A' for Active; 'I' for Inactive)
REMARK    1  A    between atoms: C_1  and  O_32 
REMARK    2  A    between atoms: C_2  and  C_8 
REMARK    3  A    between atoms: C_2  and  C_9 
REMARK    4  A    between atoms: C_6  and  N_31 
REMARK    5  A    between atoms: C_8  and  O_32 
REMARK    6  A    between atoms: C_9  and  O_33 
REMARK    7  A    between atoms: C_10  and  O_33 
REMARK    8  A    between atoms: C_14  and  C_15 
REMARK    9  A    between atoms: C_16  and  N_23 
REMARK   10  A    between atoms: C_17  and  N_28 
REMARK   11  A    between atoms: C_18  and  C_20 
ROOT
HETATM    1  C   UNL     1       6.087   0.741  15.336  1.00  0.00     0.178 C 
ENDROOT
BRANCH   1   2
HETATM    2  C   UNL     1       4.627   0.769  15.776  1.00  0.00     0.053 C 
BRANCH   2   3
HETATM    3  C   UNL     1       3.792   1.548  14.773  1.00  0.00     0.178 C 
BRANCH   3   4
HETATM    4  O   UNL     1       2.528   0.824  14.660  1.00  0.00    -0.349 OA
BRANCH   4   5
HETATM    5  C   UNL     1       2.237   0.210  13.452  1.00  0.00     0.090 A 
HETATM    6  C   UNL     1       2.303  -1.188  13.405  1.00  0.00     0.044 A 
HETATM    7  C   UNL     1       2.030  -1.802  12.192  1.00  0.00     0.027 A 
HETATM    8  C   UNL     1       1.731  -1.063  11.057  1.00  0.00     0.009 A 
HETATM    9  C   UNL     1       1.675   0.315  11.099  1.00  0.00    -0.059 A 
HETATM   10  C   UNL     1       1.332   1.128   9.862  1.00  0.00     0.048 C 
HETATM   11  C   UNL     1       1.933   0.937  12.323  1.00  0.00     0.045 A 
BRANCH   6  12
HETATM   12  N   UNL     1       2.573  -1.903  14.552  1.00  0.00    -0.279 NA
HETATM   13  C   UNL     1       3.778  -2.730  14.802  1.00  0.00     0.112 A 
HETATM   14  C   UNL     1       2.867  -3.851  15.408  1.00  0.00     0.113 A 
HETATM   15  C   UNL     1       1.656  -2.921  15.174  1.00  0.00     0.112 A 
BRANCH  14  16
HETATM   16  C   UNL     1       3.216  -4.100  16.907  1.00  0.00     0.179 C 
HETATM   17  O   UNL     1       3.745  -5.188  17.193  1.00  0.00    -0.648 OA
HETATM   18  O   UNL     1       2.919  -3.182  17.736  1.00  0.00    -0.648 OA
ENDBRANCH  14  16
ENDBRANCH   6  12
ENDBRANCH   4   5
ENDBRANCH   3   4
ENDBRANCH   2   3
ENDBRANCH   1   2
BRANCH   1  19
HETATM   19  O   UNL     1       6.197   1.685  14.237  1.00  0.00    -0.345 OA
BRANCH  19  20
HETATM   20  C   UNL     1       7.373   2.422  14.168  1.00  0.00     0.136 A 
HETATM   21  C   UNL     1       7.545   3.577  14.985  1.00  0.00     0.150 A 
HETATM   22  N   UNL     1       8.682   4.292  14.895  1.00  0.00    -0.174 N 
HETATM   23  C   UNL     1       9.614   3.879  14.038  1.00  0.00     0.677 A 
ATOM     24  HN  UNL     1       8.826   5.125  15.467  1.00  0.00     0.186 HD
HETATM   25  N   UNL     1       9.496   2.827  13.234  1.00  0.00    -0.193 N 
HETATM   26  C   UNL     1       8.369   2.087  13.305  1.00  0.00     0.063 A 
ATOM     27  HN  UNL     1      10.239   2.584  12.580  1.00  0.00     0.184 HD
BRANCH  21  28
HETATM   28  N   UNL     1       6.616   3.982  15.840  1.00  0.00    -0.383 N 
ATOM     29  HN2 UNL     1       5.754   4.431  15.532  1.00  0.00     0.157 HD
ATOM     30  HN1 UNL     1       6.782   3.836  16.836  1.00  0.00     0.157 HD
ENDBRANCH  21  28
BRANCH  23  31
HETATM   31  N   UNL     1      10.773   4.581  13.946  1.00  0.00    -0.234 N 
ATOM     32  HN2 UNL     1      10.776   5.507  14.372  1.00  0.00     0.174 HD
ATOM     33  HN1 UNL     1      11.571   4.150  13.480  1.00  0.00     0.174 HD
ENDBRANCH  23  31
BRANCH  26  34
HETATM   34  C   UNL     1       8.306   0.883  12.394  1.00  0.00     0.056 C 
HETATM   35  C   UNL     1       8.866  -0.366  13.113  1.00  0.00     0.011 C 
ENDBRANCH  26  34
ENDBRANCH  19  20
ENDBRANCH   1  19
TORSDOF 11
ENDMDL
MODEL 9
REMARK VINA RESULT:    -7.419      2.320      3.669
REMARK INTER + INTRA:         -12.872
REMARK INTER:                 -11.920
REMARK INTRA:                  -0.952
REMARK UNBOUND:                -1.117
REMARK  11 active torsions:
REMARK  status: ('A' for Active; 'I' for Inactive)
REMARK    1  A    between atoms: C_1  and  O_32 
REMARK    2  A    between atoms: C_2  and  C_8 
REMARK    3  A    between atoms: C_2  and  C_9 
REMARK    4  A    between atoms: C_6  and  N_31 
REMARK    5  A    between atoms: C_8  and  O_32 
REMARK    6  A    between atoms: C_9  and  O_33 
REMARK    7  A    between atoms: C_10  and  O_33 
REMARK    8  A    between atoms: C_14  and  C_15 
REMARK    9  A    between atoms: C_16  and  N_23 
REMARK   10  A    between atoms: C_17  and  N_28 
REMARK   11  A    between atoms: C_18  and  C_20 
ROOT
HETATM    1  C   UNL     1       5.198   1.846  13.596  1.00  0.00     0.178 C 
ENDROOT
BRANCH   1   2
HETATM    2  C   UNL     1       3.968   1.634  14.473  1.00  0.00     0.053 C 
BRANCH   2   3
HETATM    3  C   UNL     1       4.378   1.065  15.822  1.00  0.00     0.178 C 
BRANCH   3   4
HETATM    4  O   UNL     1       3.720  -0.235  15.922  1.00  0.00    -0.349 OA
BRANCH   4   5
HETATM    5  C   UNL     1       4.451  -1.361  15.580  1.00  0.00     0.090 A 
HETATM    6  C   UNL     1       3.954  -2.167  14.549  1.00  0.00     0.044 A 
HETATM    7  C   UNL     1       4.676  -3.303  14.219  1.00  0.00     0.027 A 
HETATM    8  C   UNL     1       5.832  -3.650  14.900  1.00  0.00     0.009 A 
HETATM    9  C   UNL     1       6.319  -2.862  15.923  1.00  0.00    -0.059 A 
HETATM   10  C   UNL     1       7.596  -3.230  16.661  1.00  0.00     0.048 C 
HETATM   11  C   UNL     1       5.605  -1.707  16.248  1.00  0.00     0.045 A 
BRANCH   6  12
HETATM   12  N   UNL     1       2.818  -1.788  13.866  1.00  0.00    -0.279 NA
HETATM   13  C   UNL     1       1.601  -2.612  13.669  1.00  0.00     0.112 A 
HETATM   14  C   UNL     1       1.552  -2.158  12.171  1.00  0.00     0.113 A 
HETATM   15  C   UNL     1       2.788  -1.275  12.452  1.00  0.00     0.112 A 
BRANCH  14  16
HETATM   16  C   UNL     1       0.242  -1.368  11.872  1.00  0.00     0.179 C 
HETATM   17  O   UNL     1      -0.675  -1.984  11.304  1.00  0.00    -0.648 OA
HETATM   18  O   UNL     1       0.209  -0.142  12.213  1.00  0.00    -0.648 OA
ENDBRANCH  14  16
ENDBRANCH   6  12
ENDBRANCH   4   5
ENDBRANCH   3   4
ENDBRANCH   2   3
ENDBRANCH   1   2
BRANCH   1  19
HETATM   19  O   UNL     1       6.346   1.498  14.416  1.00  0.00    -0.345 OA
BRANCH  19  20
HETATM   20  C   UNL     1       7.475   2.294  14.271  1.00  0.00     0.136 A 
HETATM   21  C   UNL     1       7.606   3.498  15.023  1.00  0.00     0.150 A 
HETATM   22  N   UNL     1       8.697   4.269  14.859  1.00  0.00    -0.174 N 
HETATM   23  C   UNL     1       9.625   3.864  13.992  1.00  0.00     0.677 A 
ATOM     24  HN  UNL     1       8.810   5.137  15.383  1.00  0.00     0.186 HD
HETATM   25  N   UNL     1       9.541   2.767  13.247  1.00  0.00    -0.193 N 
HETATM   26  C   UNL     1       8.461   1.971  13.393  1.00  0.00     0.063 A 
ATOM     27  HN  UNL     1      10.277   2.532  12.581  1.00  0.00     0.184 HD
BRANCH  21  28
HETATM   28  N   UNL     1       6.683   3.895  15.887  1.00  0.00    -0.383 N 
ATOM     29  HN2 UNL     1       6.075   3.235  16.373  1.00  0.00     0.157 HD
ATOM     30  HN1 UNL     1       6.585   4.895  16.063  1.00  0.00     0.157 HD
ENDBRANCH  21  28
BRANCH  23  31
HETATM   31  N   UNL     1      10.738   4.623  13.827  1.00  0.00    -0.234 N 
ATOM     32  HN2 UNL     1      11.597   4.125  13.596  1.00  0.00     0.174 HD
ATOM     33  HN1 UNL     1      10.659   5.636  13.925  1.00  0.00     0.174 HD
ENDBRANCH  23  31
BRANCH  26  34
HETATM   34  C   UNL     1       8.440   0.719  12.546  1.00  0.00     0.056 C 
HETATM   35  C   UNL     1       8.882  -0.505  13.381  1.00  0.00     0.011 C 
ENDBRANCH  26  34
ENDBRANCH  19  20
ENDBRANCH   1  19
TORSDOF 11
ENDMDL
MODEL 10
REMARK VINA RESULT:    -7.390      3.369      5.258
REMARK INTER + INTRA:         -12.826
REMARK INTER:                 -12.164
REMARK INTRA:                  -0.662
REMARK UNBOUND:                -1.117
REMARK  11 active torsions:
REMARK  status: ('A' for Active; 'I' for Inactive)
REMARK    1  A    between atoms: C_1  and  O_32 
REMARK    2  A    between atoms: C_2  and  C_8 
REMARK    3  A    between atoms: C_2  and  C_9 
REMARK    4  A    between atoms: C_6  and  N_31 
REMARK    5  A    between atoms: C_8  and  O_32 
REMARK    6  A    between atoms: C_9  and  O_33 
REMARK    7  A    between atoms: C_10  and  O_33 
REMARK    8  A    between atoms: C_14  and  C_15 
REMARK    9  A    between atoms: C_16  and  N_23 
REMARK   10  A    between atoms: C_17  and  N_28 
REMARK   11  A    between atoms: C_18  and  C_20 
ROOT
HETATM    1  C   UNL     1       5.064   2.119  13.981  1.00  0.00     0.178 C 
ENDROOT
BRANCH   1   2
HETATM    2  C   UNL     1       4.083   0.952  13.939  1.00  0.00     0.053 C 
BRANCH   2   3
HETATM    3  C   UNL     1       4.291   0.049  15.144  1.00  0.00     0.178 C 
BRANCH   3   4
HETATM    4  O   UNL     1       4.512  -1.290  14.605  1.00  0.00    -0.349 OA
BRANCH   4   5
HETATM    5  C   UNL     1       5.609  -2.001  15.064  1.00  0.00     0.090 A 
HETATM    6  C   UNL     1       5.364  -3.176  15.785  1.00  0.00     0.044 A 
HETATM    7  C   UNL     1       6.460  -3.878  16.259  1.00  0.00     0.027 A 
HETATM    8  C   UNL     1       7.755  -3.424  16.056  1.00  0.00     0.009 A 
HETATM    9  C   UNL     1       7.999  -2.261  15.354  1.00  0.00    -0.059 A 
HETATM   10  C   UNL     1       9.417  -1.769  15.115  1.00  0.00     0.048 C 
HETATM   11  C   UNL     1       6.898  -1.559  14.859  1.00  0.00     0.045 A 
BRANCH   6  12
HETATM   12  N   UNL     1       4.070  -3.624  15.949  1.00  0.00    -0.279 NA
HETATM   13  C   UNL     1       3.101  -3.141  16.963  1.00  0.00     0.112 A 
HETATM   14  C   UNL     1       2.684  -4.623  17.250  1.00  0.00     0.113 A 
HETATM   15  C   UNL     1       3.669  -5.061  16.145  1.00  0.00     0.112 A 
BRANCH  14  16
HETATM   16  C   UNL     1       1.180  -4.853  16.910  1.00  0.00     0.179 C 
HETATM   17  O   UNL     1       0.801  -4.534  15.770  1.00  0.00    -0.648 OA
HETATM   18  O   UNL     1       0.441  -5.333  17.827  1.00  0.00    -0.648 OA
ENDBRANCH  14  16
ENDBRANCH   6  12
ENDBRANCH   4   5
ENDBRANCH   3   4
ENDBRANCH   2   3
ENDBRANCH   1   2
BRANCH   1  19
HETATM   19  O   UNL     1       6.246   1.630  14.670  1.00  0.00    -0.345 OA
BRANCH  19  20
HETATM   20  C   UNL     1       7.418   2.350  14.476  1.00  0.00     0.136 A 
HETATM   21  C   UNL     1       7.853   3.293  15.453  1.00  0.00     0.150 A 
HETATM   22  N   UNL     1       8.981   3.996  15.243  1.00  0.00    -0.174 N 
HETATM   23  C   UNL     1       9.656   3.774  14.116  1.00  0.00     0.677 A 
ATOM     24  HN  UNL     1       9.309   4.679  15.926  1.00  0.00     0.186 HD
HETATM   25  N   UNL     1       9.284   2.929  13.160  1.00  0.00    -0.193 N 
HETATM   26  C   UNL     1       8.159   2.205  13.344  1.00  0.00     0.063 A 
ATOM     27  HN  UNL     1       9.835   2.829  12.308  1.00  0.00     0.184 HD
BRANCH  21  28
HETATM   28  N   UNL     1       7.181   3.507  16.575  1.00  0.00    -0.383 N 
ATOM     29  HN2 UNL     1       6.531   2.820  16.958  1.00  0.00     0.157 HD
ATOM     30  HN1 UNL     1       7.324   4.393  17.061  1.00  0.00     0.157 HD
ENDBRANCH  21  28
BRANCH  23  31
HETATM   31  N   UNL     1      10.804   4.465  13.897  1.00  0.00    -0.234 N 
ATOM     32  HN2 UNL     1      10.877   5.378  14.346  1.00  0.00     0.174 HD
ATOM     33  HN1 UNL     1      11.528   4.040  13.318  1.00  0.00     0.174 HD
ENDBRANCH  23  31
BRANCH  26  34
HETATM   34  C   UNL     1       7.806   1.236  12.241  1.00  0.00     0.056 C 
HETATM   35  C   UNL     1       8.900   0.152  12.104  1.00  0.00     0.011 C 
ENDBRANCH  26  34
ENDBRANCH  19  20
ENDBRANCH   1  19
TORSDOF 11
ENDMDL
MODEL 11
REMARK VINA RESULT:    -7.357      3.639      6.474
REMARK INTER + INTRA:         -12.774
REMARK INTER:                 -10.785
REMARK INTRA:                  -1.989
REMARK UNBOUND:                -1.117
REMARK  11 active torsions:
REMARK  status: ('A' for Active; 'I' for Inactive)
REMARK    1  A    between atoms: C_1  and  O_32 
REMARK    2  A    between atoms: C_2  and  C_8 
REMARK    3  A    between atoms: C_2  and  C_9 
REMARK    4  A    between atoms: C_6  and  N_31 
REMARK    5  A    between atoms: C_8  and  O_32 
REMARK    6  A    between atoms: C_9  and  O_33 
REMARK    7  A    between atoms: C_10  and  O_33 
REMARK    8  A    between atoms: C_14  and  C_15 
REMARK    9  A    between atoms: C_16  and  N_23 
REMARK   10  A    between atoms: C_17  and  N_28 
REMARK   11  A    between atoms: C_18  and  C_20 
ROOT
HETATM    1  C   UNL     1       5.559   2.076  13.919  1.00  0.00     0.178 C 
ENDROOT
BRANCH   1   2
HETATM    2  C   UNL     1       4.409   2.805  14.607  1.00  0.00     0.053 C 
BRANCH   2   3
HETATM    3  C   UNL     1       3.082   2.389  13.992  1.00  0.00     0.178 C 
BRANCH   3   4
HETATM    4  O   UNL     1       3.035   0.933  14.095  1.00  0.00    -0.349 OA
BRANCH   4   5
HETATM    5  C   UNL     1       2.394   0.231  13.087  1.00  0.00     0.090 A 
HETATM    6  C   UNL     1       2.104  -1.118  13.322  1.00  0.00     0.044 A 
HETATM    7  C   UNL     1       1.478  -1.825  12.306  1.00  0.00     0.027 A 
HETATM    8  C   UNL     1       1.176  -1.232  11.090  1.00  0.00     0.009 A 
HETATM    9  C   UNL     1       1.471   0.096  10.853  1.00  0.00    -0.059 A 
HETATM   10  C   UNL     1       1.126   0.755   9.527  1.00  0.00     0.048 C 
HETATM   11  C   UNL     1       2.085   0.817  11.879  1.00  0.00     0.045 A 
BRANCH   6  12
HETATM   12  N   UNL     1       2.386  -1.679  14.549  1.00  0.00    -0.279 NA
HETATM   13  C   UNL     1       2.843  -3.070  14.788  1.00  0.00     0.112 A 
HETATM   14  C   UNL     1       1.843  -3.178  15.989  1.00  0.00     0.113 A 
HETATM   15  C   UNL     1       1.448  -1.708  15.725  1.00  0.00     0.112 A 
BRANCH  14  16
HETATM   16  C   UNL     1       2.606  -3.417  17.327  1.00  0.00     0.179 C 
HETATM   17  O   UNL     1       2.101  -4.218  18.132  1.00  0.00    -0.648 OA
HETATM   18  O   UNL     1       3.681  -2.761  17.511  1.00  0.00    -0.648 OA
ENDBRANCH  14  16
ENDBRANCH   6  12
ENDBRANCH   4   5
ENDBRANCH   3   4
ENDBRANCH   2   3
ENDBRANCH   1   2
BRANCH   1  19
HETATM   19  O   UNL     1       6.423   1.589  14.980  1.00  0.00    -0.345 OA
BRANCH  19  20
HETATM   20  C   UNL     1       6.663   0.221  15.005  1.00  0.00     0.136 A 
HETATM   21  C   UNL     1       5.780  -0.651  15.706  1.00  0.00     0.150 A 
HETATM   22  N   UNL     1       6.034  -1.972  15.737  1.00  0.00    -0.174 N 
HETATM   23  C   UNL     1       7.115  -2.415  15.095  1.00  0.00     0.677 A 
ATOM     24  HN  UNL     1       5.419  -2.614  16.236  1.00  0.00     0.186 HD
HETATM   25  N   UNL     1       7.985  -1.646  14.450  1.00  0.00    -0.193 N 
HETATM   26  C   UNL     1       7.754  -0.317  14.398  1.00  0.00     0.063 A 
ATOM     27  HN  UNL     1       8.809  -2.051  14.004  1.00  0.00     0.184 HD
BRANCH  21  28
HETATM   28  N   UNL     1       4.704  -0.205  16.339  1.00  0.00    -0.383 N 
ATOM     29  HN2 UNL     1       4.187   0.615  16.021  1.00  0.00     0.157 HD
ATOM     30  HN1 UNL     1       4.392  -0.706  17.172  1.00  0.00     0.157 HD
ENDBRANCH  21  28
BRANCH  23  31
HETATM   31  N   UNL     1       7.377  -3.748  15.105  1.00  0.00    -0.234 N 
ATOM     32  HN2 UNL     1       8.008  -4.081  15.833  1.00  0.00     0.174 HD
ATOM     33  HN1 UNL     1       6.928  -4.340  14.406  1.00  0.00     0.174 HD
ENDBRANCH  23  31
BRANCH  26  34
HETATM   34  C   UNL     1       8.758   0.501  13.620  1.00  0.00     0.056 C 
HETATM   35  C   UNL     1       8.402   0.503  12.115  1.00  0.00     0.011 C 
ENDBRANCH  26  34
ENDBRANCH  19  20
ENDBRANCH   1  19
TORSDOF 11
ENDMDL
MODEL 12
REMARK VINA RESULT:    -7.353      2.438      3.644
REMARK INTER + INTRA:         -12.768
REMARK INTER:                 -12.185
REMARK INTRA:                  -0.582
REMARK UNBOUND:                -1.117
REMARK  11 active torsions:
REMARK  status: ('A' for Active; 'I' for Inactive)
REMARK    1  A    between atoms: C_1  and  O_32 
REMARK    2  A    between atoms: C_2  and  C_8 
REMARK    3  A    between atoms: C_2  and  C_9 
REMARK    4  A    between atoms: C_6  and  N_31 
REMARK    5  A    between atoms: C_8  and  O_32 
REMARK    6  A    between atoms: C_9  and  O_33 
REMARK    7  A    between atoms: C_10  and  O_33 
REMARK    8  A    between atoms: C_14  and  C_15 
REMARK    9  A    between atoms: C_16  and  N_23 
REMARK   10  A    between atoms: C_17  and  N_28 
REMARK   11  A    between atoms: C_18  and  C_20 
ROOT
HETATM    1  C   UNL     1       6.457   0.243  15.290  1.00  0.00     0.178 C 
ENDROOT
BRANCH   1   2
HETATM    2  C   UNL     1       5.885  -0.896  14.452  1.00  0.00     0.053 C 
BRANCH   2   3
HETATM    3  C   UNL     1       5.081  -1.841  15.330  1.00  0.00     0.178 C 
BRANCH   3   4
HETATM    4  O   UNL     1       3.712  -1.335  15.310  1.00  0.00    -0.349 OA
BRANCH   4   5
HETATM    5  C   UNL     1       2.712  -2.184  14.864  1.00  0.00     0.090 A 
HETATM    6  C   UNL     1       1.961  -1.774  13.755  1.00  0.00     0.044 A 
HETATM    7  C   UNL     1       0.949  -2.616  13.320  1.00  0.00     0.027 A 
HETATM    8  C   UNL     1       0.666  -3.806  13.971  1.00  0.00     0.009 A 
HETATM    9  C   UNL     1       1.399  -4.208  15.071  1.00  0.00    -0.059 A 
HETATM   10  C   UNL     1       1.103  -5.521  15.778  1.00  0.00     0.048 C 
HETATM   11  C   UNL     1       2.430  -3.372  15.502  1.00  0.00     0.045 A 
BRANCH   6  12
HETATM   12  N   UNL     1       2.279  -0.601  13.105  1.00  0.00    -0.279 NA
HETATM   13  C   UNL     1       1.321   0.315  12.439  1.00  0.00     0.112 A 
HETATM   14  C   UNL     1       2.307   0.443  11.229  1.00  0.00     0.113 A 
HETATM   15  C   UNL     1       3.287  -0.470  11.996  1.00  0.00     0.112 A 
BRANCH  14  16
HETATM   16  C   UNL     1       2.788   1.916  11.058  1.00  0.00     0.179 C 
HETATM   17  O   UNL     1       3.136   2.522  12.086  1.00  0.00    -0.648 OA
HETATM   18  O   UNL     1       2.774   2.402   9.882  1.00  0.00    -0.648 OA
ENDBRANCH  14  16
ENDBRANCH   6  12
ENDBRANCH   4   5
ENDBRANCH   3   4
ENDBRANCH   2   3
ENDBRANCH   1   2
BRANCH   1  19
HETATM   19  O   UNL     1       6.324   1.445  14.485  1.00  0.00    -0.345 OA
BRANCH  19  20
HETATM   20  C   UNL     1       7.463   2.230  14.351  1.00  0.00     0.136 A 
HETATM   21  C   UNL     1       7.815   3.166  15.367  1.00  0.00     0.150 A 
HETATM   22  N   UNL     1       8.911   3.932  15.216  1.00  0.00    -0.174 N 
HETATM   23  C   UNL     1       9.635   3.776  14.108  1.00  0.00     0.677 A 
ATOM     24  HN  UNL     1       9.179   4.612  15.928  1.00  0.00     0.186 HD
HETATM   25  N   UNL     1       9.339   2.940  13.118  1.00  0.00    -0.193 N 
HETATM   26  C   UNL     1       8.248   2.154  13.244  1.00  0.00     0.063 A 
ATOM     27  HN  UNL     1       9.924   2.892  12.284  1.00  0.00     0.184 HD
BRANCH  21  28
HETATM   28  N   UNL     1       7.094   3.315  16.470  1.00  0.00    -0.383 N 
ATOM     29  HN2 UNL     1       7.188   4.132  17.074  1.00  0.00     0.157 HD
ATOM     30  HN1 UNL     1       6.427   2.582  16.712  1.00  0.00     0.157 HD
ENDBRANCH  21  28
BRANCH  23  31
HETATM   31  N   UNL     1      10.751   4.531  13.948  1.00  0.00    -0.234 N 
ATOM     32  HN2 UNL     1      10.882   4.959  13.031  1.00  0.00     0.174 HD
ATOM     33  HN1 UNL     1      11.384   4.644  14.740  1.00  0.00     0.174 HD
ENDBRANCH  23  31
BRANCH  26  34
HETATM   34  C   UNL     1       7.984   1.199  12.103  1.00  0.00     0.056 C 
HETATM   35  C   UNL     1       8.758  -0.123  12.317  1.00  0.00     0.011 C 
ENDBRANCH  26  34
ENDBRANCH  19  20
ENDBRANCH   1  19
TORSDOF 11
ENDMDL
MODEL 13
REMARK VINA RESULT:    -7.298      3.693      6.457
REMARK INTER + INTRA:         -12.680
REMARK INTER:                 -11.597
REMARK INTRA:                  -1.083
REMARK UNBOUND:                -1.117
REMARK  11 active torsions:
REMARK  status: ('A' for Active; 'I' for Inactive)
REMARK    1  A    between atoms: C_1  and  O_32 
REMARK    2  A    between atoms: C_2  and  C_8 
REMARK    3  A    between atoms: C_2  and  C_9 
REMARK    4  A    between atoms: C_6  and  N_31 
REMARK    5  A    between atoms: C_8  and  O_32 
REMARK    6  A    between atoms: C_9  and  O_33 
REMARK    7  A    between atoms: C_10  and  O_33 
REMARK    8  A    between atoms: C_14  and  C_15 
REMARK    9  A    between atoms: C_16  and  N_23 
REMARK   10  A    between atoms: C_17  and  N_28 
REMARK   11  A    between atoms: C_18  and  C_20 
ROOT
HETATM    1  C   UNL     1       4.003  -1.268  16.459  1.00  0.00     0.178 C 
ENDROOT
BRANCH   1   2
HETATM    2  C   UNL     1       3.507   0.068  15.915  1.00  0.00     0.053 C 
BRANCH   2   3
HETATM    3  C   UNL     1       4.583   1.130  16.072  1.00  0.00     0.178 C 
BRANCH   3   4
HETATM    4  O   UNL     1       4.546   1.918  14.843  1.00  0.00    -0.349 OA
BRANCH   4   5
HETATM    5  C   UNL     1       5.540   1.702  13.902  1.00  0.00     0.090 A 
HETATM    6  C   UNL     1       5.230   0.886  12.808  1.00  0.00     0.044 A 
HETATM    7  C   UNL     1       6.230   0.656  11.876  1.00  0.00     0.027 A 
HETATM    8  C   UNL     1       7.502   1.187  12.032  1.00  0.00     0.009 A 
HETATM    9  C   UNL     1       7.813   1.983  13.115  1.00  0.00    -0.059 A 
HETATM   10  C   UNL     1       9.201   2.581  13.281  1.00  0.00     0.048 C 
HETATM   11  C   UNL     1       6.804   2.232  14.047  1.00  0.00     0.045 A 
BRANCH   6  12
HETATM   12  N   UNL     1       3.952   0.394  12.657  1.00  0.00    -0.279 NA
HETATM   13  C   UNL     1       3.589  -0.963  12.180  1.00  0.00     0.112 A 
HETATM   14  C   UNL     1       2.474  -0.333  11.279  1.00  0.00     0.113 A 
HETATM   15  C   UNL     1       2.859   1.047  11.855  1.00  0.00     0.112 A 
BRANCH  14  16
HETATM   16  C   UNL     1       1.063  -0.843  11.703  1.00  0.00     0.179 C 
HETATM   17  O   UNL     1       0.497  -1.644  10.939  1.00  0.00    -0.648 OA
HETATM   18  O   UNL     1       0.581  -0.392  12.790  1.00  0.00    -0.648 OA
ENDBRANCH  14  16
ENDBRANCH   6  12
ENDBRANCH   4   5
ENDBRANCH   3   4
ENDBRANCH   2   3
ENDBRANCH   1   2
BRANCH   1  19
HETATM   19  O   UNL     1       4.719  -1.908  15.368  1.00  0.00    -0.345 OA
BRANCH  19  20
HETATM   20  C   UNL     1       5.726  -2.796  15.726  1.00  0.00     0.136 A 
HETATM   21  C   UNL     1       5.407  -4.011  16.399  1.00  0.00     0.150 A 
HETATM   22  N   UNL     1       6.394  -4.854  16.755  1.00  0.00    -0.174 N 
HETATM   23  C   UNL     1       7.646  -4.513  16.453  1.00  0.00     0.677 A 
ATOM     24  HN  UNL     1       6.190  -5.727  17.242  1.00  0.00     0.186 HD
HETATM   25  N   UNL     1       8.003  -3.383  15.852  1.00  0.00    -0.193 N 
HETATM   26  C   UNL     1       7.034  -2.520  15.478  1.00  0.00     0.063 A 
ATOM     27  HN  UNL     1       8.985  -3.173  15.677  1.00  0.00     0.184 HD
BRANCH  21  28
HETATM   28  N   UNL     1       4.159  -4.348  16.694  1.00  0.00    -0.383 N 
ATOM     29  HN2 UNL     1       3.395  -4.238  16.027  1.00  0.00     0.157 HD
ATOM     30  HN1 UNL     1       3.968  -4.727  17.622  1.00  0.00     0.157 HD
ENDBRANCH  21  28
BRANCH  23  31
HETATM   31  N   UNL     1       8.652  -5.360  16.793  1.00  0.00    -0.234 N 
ATOM     32  HN2 UNL     1       9.144  -5.155  17.662  1.00  0.00     0.174 HD
ATOM     33  HN1 UNL     1       8.852  -6.152  16.182  1.00  0.00     0.174 HD
ENDBRANCH  23  31
BRANCH  26  34
HETATM   34  C   UNL     1       7.498  -1.270  14.767  1.00  0.00     0.056 C 
HETATM   35  C   UNL     1       9.040  -1.253  14.656  1.00  0.00     0.011 C 
ENDBRANCH  26  34
ENDBRANCH  19  20
ENDBRANCH   1  19
TORSDOF 11
ENDMDL
MODEL 14
REMARK VINA RESULT:    -7.276      2.181      3.259
REMARK INTER + INTRA:         -12.646
REMARK INTER:                 -12.125
REMARK INTRA:                  -0.521
REMARK UNBOUND:                -1.117
REMARK  11 active torsions:
REMARK  status: ('A' for Active; 'I' for Inactive)
REMARK    1  A    between atoms: C_1  and  O_32 
REMARK    2  A    between atoms: C_2  and  C_8 
REMARK    3  A    between atoms: C_2  and  C_9 
REMARK    4  A    between atoms: C_6  and  N_31 
REMARK    5  A    between atoms: C_8  and  O_32 
REMARK    6  A    between atoms: C_9  and  O_33 
REMARK    7  A    between atoms: C_10  and  O_33 
REMARK    8  A    between atoms: C_14  and  C_15 
REMARK    9  A    between atoms: C_16  and  N_23 
REMARK   10  A    between atoms: C_17  and  N_28 
REMARK   11  A    between atoms: C_18  and  C_20 
ROOT
HETATM    1  C   UNL     1       5.335   2.114  15.287  1.00  0.00     0.178 C 
ENDROOT
BRANCH   1   2
HETATM    2  C   UNL     1       4.422   0.943  14.935  1.00  0.00     0.053 C 
BRANCH   2   3
HETATM    3  C   UNL     1       5.204  -0.361  14.973  1.00  0.00     0.178 C 
BRANCH   3   4
HETATM    4  O   UNL     1       4.735  -1.139  13.831  1.00  0.00    -0.349 OA
BRANCH   4   5
HETATM    5  C   UNL     1       3.708  -2.046  14.040  1.00  0.00     0.090 A 
HETATM    6  C   UNL     1       2.543  -1.892  13.280  1.00  0.00     0.044 A 
HETATM    7  C   UNL     1       1.509  -2.788  13.501  1.00  0.00     0.027 A 
HETATM    8  C   UNL     1       1.608  -3.785  14.460  1.00  0.00     0.009 A 
HETATM    9  C   UNL     1       2.752  -3.933  15.219  1.00  0.00    -0.059 A 
HETATM   10  C   UNL     1       2.871  -5.035  16.259  1.00  0.00     0.048 C 
HETATM   11  C   UNL     1       3.802  -3.043  14.986  1.00  0.00     0.045 A 
BRANCH   6  12
HETATM   12  N   UNL     1       2.478  -0.913  12.311  1.00  0.00    -0.279 NA
HETATM   13  C   UNL     1       2.005   0.479  12.507  1.00  0.00     0.112 A 
HETATM   14  C   UNL     1       1.199   0.379  11.168  1.00  0.00     0.113 A 
HETATM   15  C   UNL     1       1.769  -1.046  10.991  1.00  0.00     0.112 A 
BRANCH  14  16
HETATM   16  C   UNL     1       1.716   1.420  10.129  1.00  0.00     0.179 C 
HETATM   17  O   UNL     1       1.033   1.586   9.104  1.00  0.00    -0.648 OA
HETATM   18  O   UNL     1       2.809   2.015  10.394  1.00  0.00    -0.648 OA
ENDBRANCH  14  16
ENDBRANCH   6  12
ENDBRANCH   4   5
ENDBRANCH   3   4
ENDBRANCH   2   3
ENDBRANCH   1   2
BRANCH   1  19
HETATM   19  O   UNL     1       6.671   1.558  15.428  1.00  0.00    -0.345 OA
BRANCH  19  20
HETATM   20  C   UNL     1       7.718   2.334  14.947  1.00  0.00     0.136 A 
HETATM   21  C   UNL     1       8.267   3.377  15.749  1.00  0.00     0.150 A 
HETATM   22  N   UNL     1       9.269   4.132  15.263  1.00  0.00    -0.174 N 
HETATM   23  C   UNL     1       9.715   3.865  14.036  1.00  0.00     0.677 A 
ATOM     24  HN  UNL     1       9.675   4.887  15.817  1.00  0.00     0.186 HD
HETATM   25  N   UNL     1       9.223   2.925  13.236  1.00  0.00    -0.193 N 
HETATM   26  C   UNL     1       8.221   2.148  13.697  1.00  0.00     0.063 A 
ATOM     27  HN  UNL     1       9.595   2.794  12.295  1.00  0.00     0.184 HD
BRANCH  21  28
HETATM   28  N   UNL     1       7.822   3.636  16.970  1.00  0.00    -0.383 N 
ATOM     29  HN2 UNL     1       8.440   3.958  17.716  1.00  0.00     0.157 HD
ATOM     30  HN1 UNL     1       6.829   3.504  17.160  1.00  0.00     0.157 HD
ENDBRANCH  21  28
BRANCH  23  31
HETATM   31  N   UNL     1      10.736   4.609  13.538  1.00  0.00    -0.234 N 
ATOM     32  HN2 UNL     1      11.509   4.095  13.116  1.00  0.00     0.174 HD
ATOM     33  HN1 UNL     1      10.674   5.626  13.596  1.00  0.00     0.174 HD
ENDBRANCH  23  31
BRANCH  26  34
HETATM   34  C   UNL     1       7.727   1.073  12.756  1.00  0.00     0.056 C 
HETATM   35  C   UNL     1       8.580  -0.208  12.907  1.00  0.00     0.011 C 
ENDBRANCH  26  34
ENDBRANCH  19  20
ENDBRANCH   1  19
TORSDOF 11
ENDMDL
MODEL 15
REMARK VINA RESULT:    -7.234      2.623      4.873
REMARK INTER + INTRA:         -12.579
REMARK INTER:                 -11.994
REMARK INTRA:                  -0.585
REMARK UNBOUND:                -1.117
REMARK  11 active torsions:
REMARK  status: ('A' for Active; 'I' for Inactive)
REMARK    1  A    between atoms: C_1  and  O_32 
REMARK    2  A    between atoms: C_2  and  C_8 
REMARK    3  A    between atoms: C_2  and  C_9 
REMARK    4  A    between atoms: C_6  and  N_31 
REMARK    5  A    between atoms: C_8  and  O_32 
REMARK    6  A    between atoms: C_9  and  O_33 
REMARK    7  A    between atoms: C_10  and  O_33 
REMARK    8  A    between atoms: C_14  and  C_15 
REMARK    9  A    between atoms: C_16  and  N_23 
REMARK   10  A    between atoms: C_17  and  N_28 
REMARK   11  A    between atoms: C_18  and  C_20 
ROOT
HETATM    1  C   UNL     1       7.118   0.334  14.517  1.00  0.00     0.178 C 
ENDROOT
BRANCH   1   2
HETATM    2  C   UNL     1       6.037  -0.585  13.956  1.00  0.00     0.053 C 
BRANCH   2   3
HETATM    3  C   UNL     1       5.238   0.140  12.884  1.00  0.00     0.178 C 
BRANCH   3   4
HETATM    4  O   UNL     1       3.882   0.259  13.413  1.00  0.00    -0.349 OA
BRANCH   4   5
HETATM    5  C   UNL     1       2.843  -0.268  12.662  1.00  0.00     0.090 A 
HETATM    6  C   UNL     1       2.275  -1.471  13.098  1.00  0.00     0.044 A 
HETATM    7  C   UNL     1       1.248  -2.008  12.338  1.00  0.00     0.027 A 
HETATM    8  C   UNL     1       0.815  -1.397  11.171  1.00  0.00     0.009 A 
HETATM    9  C   UNL     1       1.380  -0.217  10.733  1.00  0.00    -0.059 A 
HETATM   10  C   UNL     1       0.897   0.465   9.463  1.00  0.00     0.048 C 
HETATM   11  C   UNL     1       2.403   0.337  11.505  1.00  0.00     0.045 A 
BRANCH   6  12
HETATM   12  N   UNL     1       2.701  -2.045  14.277  1.00  0.00    -0.279 NA
HETATM   13  C   UNL     1       3.489  -3.295  14.405  1.00  0.00     0.112 A 
HETATM   14  C   UNL     1       2.561  -3.745  15.583  1.00  0.00     0.113 A 
HETATM   15  C   UNL     1       1.813  -2.401  15.438  1.00  0.00     0.112 A 
BRANCH  14  16
HETATM   16  C   UNL     1       3.374  -3.898  16.903  1.00  0.00     0.179 C 
HETATM   17  O   UNL     1       3.603  -2.864  17.553  1.00  0.00    -0.648 OA
HETATM   18  O   UNL     1       3.763  -5.069  17.216  1.00  0.00    -0.648 OA
ENDBRANCH  14  16
ENDBRANCH   6  12
ENDBRANCH   4   5
ENDBRANCH   3   4
ENDBRANCH   2   3
ENDBRANCH   1   2
BRANCH   1  19
HETATM   19  O   UNL     1       7.070   1.549  13.721  1.00  0.00    -0.345 OA
BRANCH  19  20
HETATM   20  C   UNL     1       7.438   2.724  14.363  1.00  0.00     0.136 A 
HETATM   21  C   UNL     1       8.722   3.299  14.131  1.00  0.00     0.150 A 
HETATM   22  N   UNL     1       9.072   4.428  14.774  1.00  0.00    -0.174 N 
HETATM   23  C   UNL     1       8.187   4.973  15.608  1.00  0.00     0.677 A 
ATOM     24  HN  UNL     1       9.987   4.854  14.627  1.00  0.00     0.186 HD
HETATM   25  N   UNL     1       6.989   4.467  15.882  1.00  0.00    -0.193 N 
HETATM   26  C   UNL     1       6.608   3.337  15.249  1.00  0.00     0.063 A 
ATOM     27  HN  UNL     1       6.372   4.922  16.555  1.00  0.00     0.184 HD
BRANCH  21  28
HETATM   28  N   UNL     1       9.598   2.755  13.297  1.00  0.00    -0.383 N 
ATOM     29  HN2 UNL     1       9.435   2.713  12.291  1.00  0.00     0.157 HD
ATOM     30  HN1 UNL     1      10.458   2.369  13.686  1.00  0.00     0.157 HD
ENDBRANCH  21  28
BRANCH  23  31
HETATM   31  N   UNL     1       8.519   6.120  16.253  1.00  0.00    -0.234 N 
ATOM     32  HN2 UNL     1       8.448   6.107  17.270  1.00  0.00     0.174 HD
ATOM     33  HN1 UNL     1       8.832   6.919  15.700  1.00  0.00     0.174 HD
ENDBRANCH  23  31
BRANCH  26  34
HETATM   34  C   UNL     1       5.222   2.829  15.574  1.00  0.00     0.056 C 
HETATM   35  C   UNL     1       4.196   3.372  14.552  1.00  0.00     0.011 C 
ENDBRANCH  26  34
ENDBRANCH  19  20
ENDBRANCH   1  19
TORSDOF 11
ENDMDL
MODEL 16
REMARK VINA RESULT:    -7.006      3.561      7.498
REMARK INTER + INTRA:         -12.218
REMARK INTER:                 -10.667
REMARK INTRA:                  -1.552
REMARK UNBOUND:                -1.117
REMARK  11 active torsions:
REMARK  status: ('A' for Active; 'I' for Inactive)
REMARK    1  A    between atoms: C_1  and  O_32 
REMARK    2  A    between atoms: C_2  and  C_8 
REMARK    3  A    between atoms: C_2  and  C_9 
REMARK    4  A    between atoms: C_6  and  N_31 
REMARK    5  A    between atoms: C_8  and  O_32 
REMARK    6  A    between atoms: C_9  and  O_33 
REMARK    7  A    between atoms: C_10  and  O_33 
REMARK    8  A    between atoms: C_14  and  C_15 
REMARK    9  A    between atoms: C_16  and  N_23 
REMARK   10  A    between atoms: C_17  and  N_28 
REMARK   11  A    between atoms: C_18  and  C_20 
ROOT
HETATM    1  C   UNL     1       2.921  -3.676  14.122  1.00  0.00     0.178 C 
ENDROOT
BRANCH   1   2
HETATM    2  C   UNL     1       1.666  -2.868  13.808  1.00  0.00     0.053 C 
BRANCH   2   3
HETATM    3  C   UNL     1       1.927  -1.387  14.031  1.00  0.00     0.178 C 
BRANCH   3   4
HETATM    4  O   UNL     1       3.069  -1.052  13.185  1.00  0.00    -0.349 OA
BRANCH   4   5
HETATM    5  C   UNL     1       2.885  -0.105  12.191  1.00  0.00     0.090 A 
HETATM    6  C   UNL     1       3.859   0.892  12.058  1.00  0.00     0.044 A 
HETATM    7  C   UNL     1       3.666   1.850  11.075  1.00  0.00     0.027 A 
HETATM    8  C   UNL     1       2.538   1.845  10.269  1.00  0.00     0.009 A 
HETATM    9  C   UNL     1       1.571   0.869  10.405  1.00  0.00    -0.059 A 
HETATM   10  C   UNL     1       0.340   0.849   9.513  1.00  0.00     0.048 C 
HETATM   11  C   UNL     1       1.770  -0.109  11.382  1.00  0.00     0.045 A 
BRANCH   6  12
HETATM   12  N   UNL     1       4.987   0.861  12.849  1.00  0.00    -0.279 NA
HETATM   13  C   UNL     1       5.370   1.874  13.864  1.00  0.00     0.112 A 
HETATM   14  C   UNL     1       6.845   1.820  13.340  1.00  0.00     0.113 A 
HETATM   15  C   UNL     1       6.398   0.729  12.344  1.00  0.00     0.112 A 
BRANCH  14  16
HETATM   16  C   UNL     1       7.813   1.325  14.457  1.00  0.00     0.179 C 
HETATM   17  O   UNL     1       7.863   0.100  14.663  1.00  0.00    -0.648 OA
HETATM   18  O   UNL     1       8.472   2.209  15.092  1.00  0.00    -0.648 OA
ENDBRANCH  14  16
ENDBRANCH   6  12
ENDBRANCH   4   5
ENDBRANCH   3   4
ENDBRANCH   2   3
ENDBRANCH   1   2
BRANCH   1  19
HETATM   19  O   UNL     1       3.328  -3.288  15.462  1.00  0.00    -0.345 OA
BRANCH  19  20
HETATM   20  C   UNL     1       4.656  -3.517  15.797  1.00  0.00     0.136 A 
HETATM   21  C   UNL     1       5.644  -2.522  15.538  1.00  0.00     0.150 A 
HETATM   22  N   UNL     1       6.931  -2.765  15.851  1.00  0.00    -0.174 N 
HETATM   23  C   UNL     1       7.229  -3.940  16.403  1.00  0.00     0.677 A 
ATOM     24  HN  UNL     1       7.655  -2.069  15.670  1.00  0.00     0.186 HD
HETATM   25  N   UNL     1       6.355  -4.912  16.641  1.00  0.00    -0.193 N 
HETATM   26  C   UNL     1       5.056  -4.696  16.343  1.00  0.00     0.063 A 
ATOM     27  HN  UNL     1       6.658  -5.800  17.041  1.00  0.00     0.184 HD
BRANCH  21  28
HETATM   28  N   UNL     1       5.342  -1.353  14.992  1.00  0.00    -0.383 N 
ATOM     29  HN2 UNL     1       4.618  -0.745  15.377  1.00  0.00     0.157 HD
ATOM     30  HN1 UNL     1       5.855  -1.062  14.159  1.00  0.00     0.157 HD
ENDBRANCH  21  28
BRANCH  23  31
HETATM   31  N   UNL     1       8.520  -4.193  16.737  1.00  0.00    -0.234 N 
ATOM     32  HN2 UNL     1       9.084  -3.389  17.011  1.00  0.00     0.174 HD
ATOM     33  HN1 UNL     1       8.851  -5.158  16.714  1.00  0.00     0.174 HD
ENDBRANCH  23  31
BRANCH  26  34
HETATM   34  C   UNL     1       4.104  -5.823  16.670  1.00  0.00     0.056 C 
HETATM   35  C   UNL     1       4.857  -7.174  16.698  1.00  0.00     0.011 C 
ENDBRANCH  26  34
ENDBRANCH  19  20
ENDBRANCH   1  19
TORSDOF 11
ENDMDL
MODEL 17
REMARK VINA RESULT:    -6.980      2.720      4.942
REMARK INTER + INTRA:         -12.178
REMARK INTER:                 -11.949
REMARK INTRA:                  -0.229
REMARK UNBOUND:                -1.117
REMARK  11 active torsions:
REMARK  status: ('A' for Active; 'I' for Inactive)
REMARK    1  A    between atoms: C_1  and  O_32 
REMARK    2  A    between atoms: C_2  and  C_8 
REMARK    3  A    between atoms: C_2  and  C_9 
REMARK    4  A    between atoms: C_6  and  N_31 
REMARK    5  A    between atoms: C_8  and  O_32 
REMARK    6  A    between atoms: C_9  and  O_33 
REMARK    7  A    between atoms: C_10  and  O_33 
REMARK    8  A    between atoms: C_14  and  C_15 
REMARK    9  A    between atoms: C_16  and  N_23 
REMARK   10  A    between atoms: C_17  and  N_28 
REMARK   11  A    between atoms: C_18  and  C_20 
ROOT
HETATM    1  C   UNL     1       6.801   0.486  12.694  1.00  0.00     0.178 C 
ENDROOT
BRANCH   1   2
HETATM    2  C   UNL     1       5.412   1.113  12.627  1.00  0.00     0.053 C 
BRANCH   2   3
HETATM    3  C   UNL     1       4.365   0.040  12.371  1.00  0.00     0.178 C 
BRANCH   3   4
HETATM    4  O   UNL     1       3.840  -0.325  13.683  1.00  0.00    -0.349 OA
BRANCH   4   5
HETATM    5  C   UNL     1       3.022  -1.440  13.768  1.00  0.00     0.090 A 
HETATM    6  C   UNL     1       3.589  -2.625  14.253  1.00  0.00     0.044 A 
HETATM    7  C   UNL     1       2.775  -3.745  14.321  1.00  0.00     0.027 A 
HETATM    8  C   UNL     1       1.455  -3.708  13.898  1.00  0.00     0.009 A 
HETATM    9  C   UNL     1       0.896  -2.543  13.410  1.00  0.00    -0.059 A 
HETATM   10  C   UNL     1      -0.555  -2.494  12.962  1.00  0.00     0.048 C 
HETATM   11  C   UNL     1       1.707  -1.408  13.356  1.00  0.00     0.045 A 
BRANCH   6  12
HETATM   12  N   UNL     1       4.895  -2.631  14.696  1.00  0.00    -0.279 NA
HETATM   13  C   UNL     1       5.795  -3.809  14.741  1.00  0.00     0.112 A 
HETATM   14  C   UNL     1       6.272  -3.372  16.167  1.00  0.00     0.113 A 
HETATM   15  C   UNL     1       5.358  -2.135  16.038  1.00  0.00     0.112 A 
BRANCH  14  16
HETATM   16  C   UNL     1       7.799  -3.055  16.169  1.00  0.00     0.179 C 
HETATM   17  O   UNL     1       8.204  -2.209  15.354  1.00  0.00    -0.648 OA
HETATM   18  O   UNL     1       8.527  -3.699  16.991  1.00  0.00    -0.648 OA
ENDBRANCH  14  16
ENDBRANCH   6  12
ENDBRANCH   4   5
ENDBRANCH   3   4
ENDBRANCH   2   3
ENDBRANCH   1   2
BRANCH   1  19
HETATM   19  O   UNL     1       7.313   0.777  14.023  1.00  0.00    -0.345 OA
BRANCH  19  20
HETATM   20  C   UNL     1       7.979   1.986  14.178  1.00  0.00     0.136 A 
HETATM   21  C   UNL     1       9.119   2.287  13.376  1.00  0.00     0.150 A 
HETATM   22  N   UNL     1       9.766   3.454  13.551  1.00  0.00    -0.174 N 
HETATM   23  C   UNL     1       9.302   4.294  14.476  1.00  0.00     0.677 A 
ATOM     24  HN  UNL     1      10.586   3.689  12.991  1.00  0.00     0.186 HD
HETATM   25  N   UNL     1       8.263   4.053  15.269  1.00  0.00    -0.193 N 
HETATM   26  C   UNL     1       7.591   2.893  15.114  1.00  0.00     0.063 A 
ATOM     27  HN  UNL     1       7.980   4.730  15.977  1.00  0.00     0.184 HD
BRANCH  21  28
HETATM   28  N   UNL     1       9.574   1.450  12.454  1.00  0.00    -0.383 N 
ATOM     29  HN2 UNL     1       9.922   1.775  11.551  1.00  0.00     0.157 HD
ATOM     30  HN1 UNL     1       9.570   0.452  12.664  1.00  0.00     0.157 HD
ENDBRANCH  21  28
BRANCH  23  31
HETATM   31  N   UNL     1       9.935   5.482  14.654  1.00  0.00    -0.234 N 
ATOM     32  HN2 UNL     1      10.954   5.452  14.691  1.00  0.00     0.174 HD
ATOM     33  HN1 UNL     1       9.373   6.330  14.724  1.00  0.00     0.174 HD
ENDBRANCH  23  31
BRANCH  26  34
HETATM   34  C   UNL     1       6.398   2.691  16.019  1.00  0.00     0.056 C 
HETATM   35  C   UNL     1       5.186   3.502  15.502  1.00  0.00     0.011 C 
ENDBRANCH  26  34
ENDBRANCH  19  20
ENDBRANCH   1  19
TORSDOF 11
ENDMDL
MODEL 18
REMARK VINA RESULT:    -6.890      2.279      2.775
REMARK INTER + INTRA:         -12.034
REMARK INTER:                 -11.525
REMARK INTRA:                  -0.509
REMARK UNBOUND:                -1.117
REMARK  11 active torsions:
REMARK  status: ('A' for Active; 'I' for Inactive)
REMARK    1  A    between atoms: C_1  and  O_32 
REMARK    2  A    between atoms: C_2  and  C_8 
REMARK    3  A    between atoms: C_2  and  C_9 
REMARK    4  A    between atoms: C_6  and  N_31 
REMARK    5  A    between atoms: C_8  and  O_32 
REMARK    6  A    between atoms: C_9  and  O_33 
REMARK    7  A    between atoms: C_10  and  O_33 
REMARK    8  A    between atoms: C_14  and  C_15 
REMARK    9  A    between atoms: C_16  and  N_23 
REMARK   10  A    between atoms: C_17  and  N_28 
REMARK   11  A    between atoms: C_18  and  C_20 
ROOT
HETATM    1  C   UNL     1       7.157  -0.104  14.239  1.00  0.00     0.178 C 
ENDROOT
BRANCH   1   2
HETATM    2  C   UNL     1       5.914  -0.983  14.136  1.00  0.00     0.053 C 
BRANCH   2   3
HETATM    3  C   UNL     1       5.184  -1.016  15.469  1.00  0.00     0.178 C 
BRANCH   3   4
HETATM    4  O   UNL     1       3.775  -0.789  15.157  1.00  0.00    -0.349 OA
BRANCH   4   5
HETATM    5  C   UNL     1       2.993  -1.890  14.847  1.00  0.00     0.090 A 
HETATM    6  C   UNL     1       2.263  -1.851  13.653  1.00  0.00     0.044 A 
HETATM    7  C   UNL     1       1.467  -2.944  13.351  1.00  0.00     0.027 A 
HETATM    8  C   UNL     1       1.369  -4.028  14.211  1.00  0.00     0.009 A 
HETATM    9  C   UNL     1       2.079  -4.065  15.394  1.00  0.00    -0.059 A 
HETATM   10  C   UNL     1       1.988  -5.258  16.331  1.00  0.00     0.048 C 
HETATM   11  C   UNL     1       2.897  -2.973  15.693  1.00  0.00     0.045 A 
BRANCH   6  12
HETATM   12  N   UNL     1       2.399  -0.777  12.799  1.00  0.00    -0.279 NA
HETATM   13  C   UNL     1       1.831   0.578  13.003  1.00  0.00     0.112 A 
HETATM   14  C   UNL     1       1.390   0.605  11.500  1.00  0.00     0.113 A 
HETATM   15  C   UNL     1       2.048  -0.783  11.336  1.00  0.00     0.112 A 
BRANCH  14  16
HETATM   16  C   UNL     1       2.103   1.758  10.732  1.00  0.00     0.179 C 
HETATM   17  O   UNL     1       1.719   1.991   9.574  1.00  0.00    -0.648 OA
HETATM   18  O   UNL     1       3.041   2.370  11.337  1.00  0.00    -0.648 OA
ENDBRANCH  14  16
ENDBRANCH   6  12
ENDBRANCH   4   5
ENDBRANCH   3   4
ENDBRANCH   2   3
ENDBRANCH   1   2
BRANCH   1  19
HETATM   19  O   UNL     1       6.811   1.163  13.617  1.00  0.00    -0.345 OA
BRANCH  19  20
HETATM   20  C   UNL     1       7.386   2.301  14.168  1.00  0.00     0.136 A 
HETATM   21  C   UNL     1       8.670   2.740  13.731  1.00  0.00     0.150 A 
HETATM   22  N   UNL     1       9.223   3.834  14.287  1.00  0.00    -0.174 N 
HETATM   23  C   UNL     1       8.534   4.472  15.232  1.00  0.00     0.677 A 
ATOM     24  HN  UNL     1      10.142   4.165  13.993  1.00  0.00     0.186 HD
HETATM   25  N   UNL     1       7.348   4.092  15.696  1.00  0.00    -0.193 N 
HETATM   26  C   UNL     1       6.765   3.001  15.155  1.00  0.00     0.063 A 
ATOM     27  HN  UNL     1       6.889   4.612  16.443  1.00  0.00     0.184 HD
BRANCH  21  28
HETATM   28  N   UNL     1       9.350   2.105  12.788  1.00  0.00    -0.383 N 
ATOM     29  HN2 UNL     1      10.346   1.902  12.879  1.00  0.00     0.157 HD
ATOM     30  HN1 UNL     1       8.851   1.815  11.946  1.00  0.00     0.157 HD
ENDBRANCH  21  28
BRANCH  23  31
HETATM   31  N   UNL     1       9.072   5.586  15.792  1.00  0.00    -0.234 N 
ATOM     32  HN2 UNL     1       8.423   6.218  16.259  1.00  0.00     0.174 HD
ATOM     33  HN1 UNL     1      10.081   5.725  15.732  1.00  0.00     0.174 HD
ENDBRANCH  23  31
BRANCH  26  34
HETATM   34  C   UNL     1       5.402   2.638  15.697  1.00  0.00     0.056 C 
HETATM   35  C   UNL     1       4.304   2.971  14.660  1.00  0.00     0.011 C 
ENDBRANCH  26  34
ENDBRANCH  19  20
ENDBRANCH   1  19
TORSDOF 11
ENDMDL
MODEL 19
REMARK VINA RESULT:    -6.851      3.756      7.622
REMARK INTER + INTRA:         -11.973
REMARK INTER:                 -10.215
REMARK INTRA:                  -1.757
REMARK UNBOUND:                -1.117
REMARK  11 active torsions:
REMARK  status: ('A' for Active; 'I' for Inactive)
REMARK    1  A    between atoms: C_1  and  O_32 
REMARK    2  A    between atoms: C_2  and  C_8 
REMARK    3  A    between atoms: C_2  and  C_9 
REMARK    4  A    between atoms: C_6  and  N_31 
REMARK    5  A    between atoms: C_8  and  O_32 
REMARK    6  A    between atoms: C_9  and  O_33 
REMARK    7  A    between atoms: C_10  and  O_33 
REMARK    8  A    between atoms: C_14  and  C_15 
REMARK    9  A    between atoms: C_16  and  N_23 
REMARK   10  A    between atoms: C_17  and  N_28 
REMARK   11  A    between atoms: C_18  and  C_20 
ROOT
HETATM    1  C   UNL     1       3.341   1.755  13.272  1.00  0.00     0.178 C 
ENDROOT
BRANCH   1   2
HETATM    2  C   UNL     1       3.669   2.963  14.145  1.00  0.00     0.053 C 
BRANCH   2   3
HETATM    3  C   UNL     1       4.760   2.607  15.142  1.00  0.00     0.178 C 
BRANCH   3   4
HETATM    4  O   UNL     1       5.020   1.182  14.957  1.00  0.00    -0.349 OA
BRANCH   4   5
HETATM    5  C   UNL     1       6.281   0.802  14.529  1.00  0.00     0.090 A 
HETATM    6  C   UNL     1       6.699  -0.502  14.823  1.00  0.00     0.044 A 
HETATM    7  C   UNL     1       7.968  -0.877  14.411  1.00  0.00     0.027 A 
HETATM    8  C   UNL     1       8.809   0.010  13.758  1.00  0.00     0.009 A 
HETATM    9  C   UNL     1       8.404   1.299  13.476  1.00  0.00    -0.059 A 
HETATM   10  C   UNL     1       9.317   2.270  12.745  1.00  0.00     0.048 C 
HETATM   11  C   UNL     1       7.120   1.676  13.873  1.00  0.00     0.045 A 
BRANCH   6  12
HETATM   12  N   UNL     1       5.835  -1.377  15.447  1.00  0.00    -0.279 NA
HETATM   13  C   UNL     1       5.927  -1.841  16.853  1.00  0.00     0.112 A 
HETATM   14  C   UNL     1       5.611  -3.299  16.377  1.00  0.00     0.113 A 
HETATM   15  C   UNL     1       5.474  -2.747  14.942  1.00  0.00     0.112 A 
BRANCH  14  16
HETATM   16  C   UNL     1       4.282  -3.814  17.007  1.00  0.00     0.179 C 
HETATM   17  O   UNL     1       4.115  -5.044  17.053  1.00  0.00    -0.648 OA
HETATM   18  O   UNL     1       3.451  -2.939  17.412  1.00  0.00    -0.648 OA
ENDBRANCH  14  16
ENDBRANCH   6  12
ENDBRANCH   4   5
ENDBRANCH   3   4
ENDBRANCH   2   3
ENDBRANCH   1   2
BRANCH   1  19
HETATM   19  O   UNL     1       2.030   1.293  13.696  1.00  0.00    -0.345 OA
BRANCH  19  20
HETATM   20  C   UNL     1       1.823  -0.080  13.679  1.00  0.00     0.136 A 
HETATM   21  C   UNL     1       2.174  -0.874  14.809  1.00  0.00     0.150 A 
HETATM   22  N   UNL     1       1.984  -2.206  14.772  1.00  0.00    -0.174 N 
HETATM   23  C   UNL     1       1.463  -2.733  13.665  1.00  0.00     0.677 A 
ATOM     24  HN  UNL     1       2.232  -2.795  15.568  1.00  0.00     0.186 HD
HETATM   25  N   UNL     1       1.144  -2.045  12.573  1.00  0.00    -0.193 N 
HETATM   26  C   UNL     1       1.318  -0.707  12.582  1.00  0.00     0.063 A 
ATOM     27  HN  UNL     1       0.775  -2.518  11.748  1.00  0.00     0.184 HD
BRANCH  21  28
HETATM   28  N   UNL     1       2.688  -0.345  15.911  1.00  0.00    -0.383 N 
ATOM     29  HN2 UNL     1       2.143  -0.238  16.767  1.00  0.00     0.157 HD
ATOM     30  HN1 UNL     1       3.661  -0.039  15.890  1.00  0.00     0.157 HD
ENDBRANCH  21  28
BRANCH  23  31
HETATM   31  N   UNL     1       1.253  -4.073  13.617  1.00  0.00    -0.234 N 
ATOM     32  HN2 UNL     1       1.247  -4.564  14.511  1.00  0.00     0.174 HD
ATOM     33  HN1 UNL     1       1.098  -4.513  12.710  1.00  0.00     0.174 HD
ENDBRANCH  23  31
BRANCH  26  34
HETATM   34  C   UNL     1       0.903   0.025  11.327  1.00  0.00     0.056 C 
HETATM   35  C   UNL     1       0.723  -0.970  10.157  1.00  0.00     0.011 C 
ENDBRANCH  26  34
ENDBRANCH  19  20
ENDBRANCH   1  19
TORSDOF 11
ENDMDL
MODEL 20
REMARK VINA RESULT:    -6.777      3.079      5.613
REMARK INTER + INTRA:         -11.856
REMARK INTER:                 -11.197
REMARK INTRA:                  -0.659
REMARK UNBOUND:                -1.117
REMARK  11 active torsions:
REMARK  status: ('A' for Active; 'I' for Inactive)
REMARK    1  A    between atoms: C_1  and  O_32 
REMARK    2  A    between atoms: C_2  and  C_8 
REMARK    3  A    between atoms: C_2  and  C_9 
REMARK    4  A    between atoms: C_6  and  N_31 
REMARK    5  A    between atoms: C_8  and  O_32 
REMARK    6  A    between atoms: C_9  and  O_33 
REMARK    7  A    between atoms: C_10  and  O_33 
REMARK    8  A    between atoms: C_14  and  C_15 
REMARK    9  A    between atoms: C_16  and  N_23 
REMARK   10  A    between atoms: C_17  and  N_28 
REMARK   11  A    between atoms: C_18  and  C_20 
ROOT
HETATM    1  C   UNL     1       3.996   1.000  15.443  1.00  0.00     0.178 C 
ENDROOT
BRANCH   1   2
HETATM    2  C   UNL     1       2.774   0.280  14.877  1.00  0.00     0.053 C 
BRANCH   2   3
HETATM    3  C   UNL     1       2.197  -0.667  15.917  1.00  0.00     0.178 C 
BRANCH   3   4
HETATM    4  O   UNL     1       3.343  -1.336  16.526  1.00  0.00    -0.349 OA
BRANCH   4   5
HETATM    5  C   UNL     1       3.269  -2.706  16.717  1.00  0.00     0.090 A 
HETATM    6  C   UNL     1       4.417  -3.461  16.447  1.00  0.00     0.044 A 
HETATM    7  C   UNL     1       4.337  -4.834  16.622  1.00  0.00     0.027 A 
HETATM    8  C   UNL     1       3.159  -5.446  17.020  1.00  0.00     0.009 A 
HETATM    9  C   UNL     1       2.023  -4.705  17.278  1.00  0.00    -0.059 A 
HETATM   10  C   UNL     1       0.734  -5.371  17.731  1.00  0.00     0.048 C 
HETATM   11  C   UNL     1       2.103  -3.320  17.120  1.00  0.00     0.045 A 
BRANCH   6  12
HETATM   12  N   UNL     1       5.585  -2.828  16.081  1.00  0.00    -0.279 NA
HETATM   13  C   UNL     1       6.206  -2.852  14.734  1.00  0.00     0.112 A 
HETATM   14  C   UNL     1       7.606  -3.076  15.399  1.00  0.00     0.113 A 
HETATM   15  C   UNL     1       6.911  -2.986  16.775  1.00  0.00     0.112 A 
BRANCH  14  16
HETATM   16  C   UNL     1       8.570  -1.894  15.078  1.00  0.00     0.179 C 
HETATM   17  O   UNL     1       9.789  -2.130  15.111  1.00  0.00    -0.648 OA
HETATM   18  O   UNL     1       8.042  -0.764  14.823  1.00  0.00    -0.648 OA
ENDBRANCH  14  16
ENDBRANCH   6  12
ENDBRANCH   4   5
ENDBRANCH   3   4
ENDBRANCH   2   3
ENDBRANCH   1   2
BRANCH   1  19
HETATM   19  O   UNL     1       4.351   2.020  14.471  1.00  0.00    -0.345 OA
BRANCH  19  20
HETATM   20  C   UNL     1       5.675   2.440  14.471  1.00  0.00     0.136 A 
HETATM   21  C   UNL     1       6.112   3.440  15.388  1.00  0.00     0.150 A 
HETATM   22  N   UNL     1       7.393   3.851  15.364  1.00  0.00    -0.174 N 
HETATM   23  C   UNL     1       8.212   3.292  14.474  1.00  0.00     0.677 A 
ATOM     24  HN  UNL     1       7.727   4.568  16.008  1.00  0.00     0.186 HD
HETATM   25  N   UNL     1       7.853   2.378  13.579  1.00  0.00    -0.193 N 
HETATM   26  C   UNL     1       6.576   1.942  13.582  1.00  0.00     0.063 A 
ATOM     27  HN  UNL     1       8.528   2.013  12.907  1.00  0.00     0.184 HD
BRANCH  21  28
HETATM   28  N   UNL     1       5.294   3.990  16.274  1.00  0.00    -0.383 N 
ATOM     29  HN2 UNL     1       4.876   3.452  17.034  1.00  0.00     0.157 HD
ATOM     30  HN1 UNL     1       5.081   4.984  16.183  1.00  0.00     0.157 HD
ENDBRANCH  21  28
BRANCH  23  31
HETATM   31  N   UNL     1       9.511   3.686  14.448  1.00  0.00    -0.234 N 
ATOM     32  HN2 UNL     1       9.713   4.553  13.951  1.00  0.00     0.174 HD
ATOM     33  HN1 UNL     1      10.206   3.114  14.929  1.00  0.00     0.174 HD
ENDBRANCH  23  31
BRANCH  26  34
HETATM   34  C   UNL     1       6.236   0.876  12.566  1.00  0.00     0.056 C 
HETATM   35  C   UNL     1       7.460   0.574  11.671  1.00  0.00     0.011 C 
ENDBRANCH  26  34
ENDBRANCH  19  20
ENDBRANCH   1  19
TORSDOF 11
ENDMDL
