REMARK  2 active torsions:
REMARK  status: ('A' for Active; 'I' for Inactive)
REMARK    1  A    between atoms: C_2  and  N_13 
REMARK    2  A    between atoms: N_15  and  C_19 
ROOT
HETATM    1  C   UNL     1      32.954  52.479  13.845  1.00  0.00     0.119 C 
HETATM    2  C   UNL     1      31.711  53.808  15.307  1.00  0.00     0.333 C 
HETATM    3  C   UNL     1      31.440  51.372  15.366  1.00  0.00     0.060 A 
HETATM    4  C   UNL     1      30.796  50.245  15.877  1.00  0.00     0.055 A 
HETATM    5  C   UNL     1      31.015  49.013  15.285  1.00  0.00     0.036 A 
HETATM    6  C   UNL     1      31.853  48.870  14.196  1.00  0.00     0.025 A 
HETATM    7  C   UNL     1      32.488  49.988  13.676  1.00  0.00     0.019 A 
HETATM    8  C   UNL     1      32.294  51.247  14.254  1.00  0.00     0.035 A 
HETATM    9 CL   UNL     1      30.226  47.606  15.941  1.00  0.00    -0.084 Cl
HETATM   10  N   UNL     1      31.231  52.638  15.929  1.00  0.00    -0.262 N 
HETATM   11  O   UNL     1      31.332  54.890  15.740  1.00  0.00    -0.246 OA
HETATM   12  N   UNL     1      32.583  53.697  14.258  1.00  0.00    -0.293 N 
ATOM     13  HN  UNL     1      32.945  54.532  13.797  1.00  0.00     0.172 HD
ENDROOT
BRANCH  10  14
HETATM   14  C   UNL     1      30.385  52.768  17.080  1.00  0.00     0.059 A 
HETATM   15  C   UNL     1      30.935  52.780  18.330  1.00  0.00     0.117 A 
HETATM   16  N   UNL     1      30.209  52.898  19.445  1.00  0.00    -0.373 N 
HETATM   17  C   UNL     1      28.878  53.008  19.314  1.00  0.00     0.088 A 
ATOM     18  HN  UNL     1      30.651  52.904  20.364  1.00  0.00     0.164 HD
HETATM   19  C   UNL     1      28.232  53.020  18.095  1.00  0.00     0.019 A 
HETATM   20  C   UNL     1      29.001  52.894  16.948  1.00  0.00     0.033 A 
ENDBRANCH  10  14
BRANCH   1  21
HETATM   21  N   UNL     1      34.063  52.514  13.054  1.00  0.00    -0.375 N 
HETATM   22  C   UNL     1      34.893  51.340  12.702  1.00  0.00     0.150 C 
HETATM   23  C   UNL     1      34.639  53.786  12.618  1.00  0.00     0.150 C 
ENDBRANCH   1  21
TORSDOF 2
