REMARK  2 active torsions:
REMARK  status: ('A' for Active; 'I' for Inactive)
REMARK    1  A    between atoms: C_2  and  N_13 
REMARK    2  A    between atoms: N_15  and  C_19 
ROOT
HETATM    1  C   UNL     1      -0.815   0.638  -1.468  1.00  0.00     0.119 A 
HETATM    2  C   UNL     1      -1.540  -1.359  -0.415  1.00  0.00     0.333 A 
HETATM    3  C   UNL     1       0.517  -0.387   0.282  1.00  0.00     0.060 A 
HETATM    4  C   UNL     1       1.687  -0.386   1.077  1.00  0.00     0.055 A 
HETATM    5  C   UNL     1       2.653   0.613   0.926  1.00  0.00     0.036 A 
HETATM    6  C   UNL     1       2.477   1.620  -0.022  1.00  0.00     0.025 A 
HETATM    7  C   UNL     1       1.335   1.638  -0.822  1.00  0.00     0.019 A 
HETATM    8  C   UNL     1       0.344   0.649  -0.672  1.00  0.00     0.035 A 
HETATM    9 CL   UNL     1       4.096   0.593   1.923  1.00  0.00    -0.084 Cl
HETATM   10  N   UNL     1      -0.439  -1.372   0.400  1.00  0.00    -0.262 N 
HETATM   11  O   UNL     1      -2.417  -2.262  -0.327  1.00  0.00    -0.246 OA
HETATM   12  N   UNL     1      -1.711  -0.368  -1.324  1.00  0.00    -0.293 N 
ATOM     13  HN  UNL     1      -2.540  -0.380  -1.918  1.00  0.00     0.172 HD
ENDROOT
BRANCH  10  14
HETATM   14  C   UNL     1      -0.309  -2.430   1.369  1.00  0.00     0.059 A 
HETATM   15  C   UNL     1      -0.621  -2.202   2.716  1.00  0.00     0.117 A 
HETATM   16  N   UNL     1      -0.496  -3.207   3.624  1.00  0.00    -0.373 N 
HETATM   17  C   UNL     1      -0.075  -4.448   3.262  1.00  0.00     0.088 A 
ATOM     18  HN  UNL     1      -0.724  -3.025   4.601  1.00  0.00     0.164 HD
HETATM   19  C   UNL     1       0.243  -4.719   1.929  1.00  0.00     0.019 A 
HETATM   20  C   UNL     1       0.123  -3.703   0.978  1.00  0.00     0.033 A 
ENDBRANCH  10  14
BRANCH   1  21
HETATM   21  N   UNL     1      -1.073   1.669  -2.435  1.00  0.00    -0.375 N 
HETATM   22  C   UNL     1      -1.517   2.981  -1.965  1.00  0.00     0.150 C 
HETATM   23  C   UNL     1      -1.395   1.279  -3.806  1.00  0.00     0.150 C 
ENDBRANCH   1  21
TORSDOF 2
