REMARK  1 active torsions:
REMARK  status: ('A' for Active; 'I' for Inactive)
REMARK    1  A    between atoms: C_4  and  C_8 
ROOT
HETATM    1  N   UNL     1       0.037  20.982  -2.091  1.00  0.00    -0.374 N 
ATOM      2  HN  UNL     1      -0.686  20.269  -1.998  1.00  0.00     0.164 HD
HETATM    3  C   UNL     1       0.990  20.891  -3.037  1.00  0.00     0.105 A 
HETATM    4  C   UNL     1       2.003  21.824  -3.200  1.00  0.00     0.056 A 
HETATM    5  C   UNL     1       2.023  22.903  -2.325  1.00  0.00     0.021 A 
HETATM    6  C   UNL     1       1.043  23.021  -1.357  1.00  0.00     0.018 A 
HETATM    7  C   UNL     1       0.075  22.042  -1.279  1.00  0.00     0.087 A 
ENDROOT
BRANCH   4   8
HETATM    8  C   UNL     1       3.035  21.666  -4.263  1.00  0.00     0.210 C 
HETATM    9  O   UNL     1       3.108  20.643  -4.935  1.00  0.00    -0.644 OA
HETATM   10  O   UNL     1       3.829  22.695  -4.435  1.00  0.00    -0.644 OA
ENDBRANCH   4   8
TORSDOF 1
