MODEL 1
REMARK VINA RESULT:   -10.623      0.000      0.000
REMARK INTER + INTRA:         -15.054
REMARK INTER:                 -14.350
REMARK INTRA:                  -0.704
REMARK UNBOUND:                -0.704
REMARK  6 active torsions:
REMARK  status: ('A' for Active; 'I' for Inactive)
REMARK    1  A    between atoms: N_18  and  C_19 
REMARK    2  A    between atoms: C_19  and  C_20 
REMARK    3  A    between atoms: C_20  and  C_21 
REMARK    4  A    between atoms: C_21  and  C_22 
REMARK    5  A    between atoms: C_22  and  C_23 
REMARK    6  A    between atoms: C_23  and  C_24 
ROOT
HETATM    1  O   UNL     1     -17.424   4.523 -10.554  1.00  0.00    -0.272 OA
HETATM    2  C   UNL     1     -18.467   4.310 -11.191  1.00  0.00     0.234 A 
HETATM    3  C   UNL     1     -19.700   4.170 -10.532  1.00  0.00     0.126 A 
HETATM    4  C   UNL     1     -20.305   5.486  -9.932  1.00  0.00     0.126 C 
HETATM    5  C   UNL     1     -21.804   5.185  -9.990  1.00  0.00     0.167 C 
HETATM    6 CL   UNL     1     -22.410   3.716  -8.944  1.00  0.00    -0.097 Cl
HETATM    7 CL   UNL     1     -22.854   6.585  -9.382  1.00  0.00    -0.097 Cl
HETATM    8 CL   UNL     1     -19.685   5.898  -8.279  1.00  0.00    -0.108 Cl
HETATM    9  C   UNL     1     -20.231   6.522 -10.875  1.00  0.00     0.059 C 
HETATM   10 CL   UNL     1     -19.096   7.853 -10.721  1.00  0.00    -0.085 Cl
HETATM   11  C   UNL     1     -21.122   6.281 -11.837  1.00  0.00     0.059 C 
HETATM   12 CL   UNL     1     -21.401   7.249 -13.232  1.00  0.00    -0.085 Cl
HETATM   13  C   UNL     1     -21.747   5.039 -11.496  1.00  0.00     0.126 C 
HETATM   14 CL   UNL     1     -23.357   4.708 -12.191  1.00  0.00    -0.108 Cl
HETATM   15  C   UNL     1     -20.684   3.878 -11.619  1.00  0.00     0.126 A 
HETATM   16  C   UNL     1     -19.918   3.907 -12.772  1.00  0.00     0.234 A 
HETATM   17  O   UNL     1     -20.392   3.690 -13.884  1.00  0.00    -0.272 OA
HETATM   18  N   UNL     1     -18.601   4.126 -12.519  1.00  0.00    -0.288 N 
ENDROOT
BRANCH  18  19
HETATM   19  C   UNL     1     -17.642   4.170 -13.640  1.00  0.00     0.135 C 
BRANCH  19  20
HETATM   20  C   UNL     1     -17.711   5.483 -14.422  1.00  0.00     0.020 C 
BRANCH  20  21
HETATM   21  C   UNL     1     -16.342   6.109 -14.524  1.00  0.00     0.002 C 
BRANCH  21  22
HETATM   22  C   UNL     1     -15.507   5.711 -13.320  1.00  0.00     0.010 C 
BRANCH  22  23
HETATM   23  C   UNL     1     -14.047   5.559 -13.743  1.00  0.00     0.113 C 
BRANCH  23  24
HETATM   24  C   UNL     1     -13.700   4.081 -13.792  1.00  0.00     0.172 C 
HETATM   25  O   UNL     1     -12.812   3.754 -14.593  1.00  0.00    -0.648 OA
HETATM   26  O   UNL     1     -14.325   3.314 -13.022  1.00  0.00    -0.648 OA
ENDBRANCH  23  24
ENDBRANCH  22  23
ENDBRANCH  21  22
ENDBRANCH  20  21
ENDBRANCH  19  20
ENDBRANCH  18  19
TORSDOF 6
ENDMDL
MODEL 2
REMARK VINA RESULT:   -10.103      1.950      2.700
REMARK INTER + INTRA:         -14.351
REMARK INTER:                 -13.332
REMARK INTRA:                  -1.019
REMARK UNBOUND:                -0.704
REMARK  6 active torsions:
REMARK  status: ('A' for Active; 'I' for Inactive)
REMARK    1  A    between atoms: N_18  and  C_19 
REMARK    2  A    between atoms: C_19  and  C_20 
REMARK    3  A    between atoms: C_20  and  C_21 
REMARK    4  A    between atoms: C_21  and  C_22 
REMARK    5  A    between atoms: C_22  and  C_23 
REMARK    6  A    between atoms: C_23  and  C_24 
ROOT
HETATM    1  O   UNL     1     -17.586   4.344  -9.880  1.00  0.00    -0.272 OA
HETATM    2  C   UNL     1     -18.406   4.238 -10.806  1.00  0.00     0.234 A 
HETATM    3  C   UNL     1     -19.780   4.108 -10.542  1.00  0.00     0.126 A 
HETATM    4  C   UNL     1     -20.499   5.399 -10.018  1.00  0.00     0.126 C 
HETATM    5  C   UNL     1     -21.925   5.180 -10.529  1.00  0.00     0.167 C 
HETATM    6 CL   UNL     1     -22.844   3.664  -9.841  1.00  0.00    -0.097 Cl
HETATM    7 CL   UNL     1     -23.070   6.577 -10.117  1.00  0.00    -0.097 Cl
HETATM    8 CL   UNL     1     -20.372   5.641  -8.227  1.00  0.00    -0.108 Cl
HETATM    9  C   UNL     1     -20.130   6.504 -10.801  1.00  0.00     0.059 C 
HETATM   10 CL   UNL     1     -19.054   7.757 -10.206  1.00  0.00    -0.085 Cl
HETATM   11  C   UNL     1     -20.711   6.388 -11.994  1.00  0.00     0.059 C 
HETATM   12 CL   UNL     1     -20.552   7.481 -13.315  1.00  0.00    -0.085 Cl
HETATM   13  C   UNL     1     -21.439   5.156 -11.964  1.00  0.00     0.126 C 
HETATM   14 CL   UNL     1     -22.788   4.966 -13.116  1.00  0.00    -0.108 Cl
HETATM   15  C   UNL     1     -20.416   3.957 -11.887  1.00  0.00     0.126 A 
HETATM   16  C   UNL     1     -19.350   4.040 -12.765  1.00  0.00     0.234 A 
HETATM   17  O   UNL     1     -19.488   3.940 -13.981  1.00  0.00    -0.272 OA
HETATM   18  N   UNL     1     -18.156   4.170 -12.128  1.00  0.00    -0.288 N 
ENDROOT
BRANCH  18  19
HETATM   19  C   UNL     1     -16.913   4.257 -12.919  1.00  0.00     0.135 C 
BRANCH  19  20
HETATM   20  C   UNL     1     -16.334   5.673 -12.951  1.00  0.00     0.020 C 
BRANCH  20  21
HETATM   21  C   UNL     1     -15.941   6.050 -14.359  1.00  0.00     0.002 C 
BRANCH  21  22
HETATM   22  C   UNL     1     -17.170   6.493 -15.132  1.00  0.00     0.010 C 
BRANCH  22  23
HETATM   23  C   UNL     1     -16.883   7.829 -15.816  1.00  0.00     0.113 C 
BRANCH  23  24
HETATM   24  C   UNL     1     -17.643   8.926 -15.091  1.00  0.00     0.172 C 
HETATM   25  O   UNL     1     -18.627   9.394 -15.683  1.00  0.00    -0.648 OA
HETATM   26  O   UNL     1     -17.227   9.266 -13.959  1.00  0.00    -0.648 OA
ENDBRANCH  23  24
ENDBRANCH  22  23
ENDBRANCH  21  22
ENDBRANCH  20  21
ENDBRANCH  19  20
ENDBRANCH  18  19
TORSDOF 6
ENDMDL
MODEL 3
REMARK VINA RESULT:    -9.674      0.873      1.071
REMARK INTER + INTRA:         -13.772
REMARK INTER:                 -13.145
REMARK INTRA:                  -0.627
REMARK UNBOUND:                -0.704
REMARK  6 active torsions:
REMARK  status: ('A' for Active; 'I' for Inactive)
REMARK    1  A    between atoms: N_18  and  C_19 
REMARK    2  A    between atoms: C_19  and  C_20 
REMARK    3  A    between atoms: C_20  and  C_21 
REMARK    4  A    between atoms: C_21  and  C_22 
REMARK    5  A    between atoms: C_22  and  C_23 
REMARK    6  A    between atoms: C_23  and  C_24 
ROOT
HETATM    1  O   UNL     1     -17.598   4.318 -10.318  1.00  0.00    -0.272 OA
HETATM    2  C   UNL     1     -18.625   4.380 -11.011  1.00  0.00     0.234 A 
HETATM    3  C   UNL     1     -19.877   4.030 -10.478  1.00  0.00     0.126 A 
HETATM    4  C   UNL     1     -20.484   5.039  -9.443  1.00  0.00     0.126 C 
HETATM    5  C   UNL     1     -21.984   4.812  -9.641  1.00  0.00     0.167 C 
HETATM    6 CL   UNL     1     -22.635   3.072  -9.231  1.00  0.00    -0.097 Cl
HETATM    7 CL   UNL     1     -23.034   5.905  -8.577  1.00  0.00    -0.097 Cl
HETATM    8 CL   UNL     1     -19.905   4.792  -7.744  1.00  0.00    -0.108 Cl
HETATM    9  C   UNL     1     -20.373   6.350  -9.930  1.00  0.00     0.059 C 
HETATM   10 CL   UNL     1     -19.227   7.504  -9.267  1.00  0.00    -0.085 Cl
HETATM   11  C   UNL     1     -21.240   6.502 -10.931  1.00  0.00     0.059 C 
HETATM   12 CL   UNL     1     -21.470   7.927 -11.870  1.00  0.00    -0.085 Cl
HETATM   13  C   UNL     1     -21.887   5.237 -11.092  1.00  0.00     0.126 C 
HETATM   14 CL   UNL     1     -23.482   5.222 -11.894  1.00  0.00    -0.108 Cl
HETATM   15  C   UNL     1     -20.835   4.184 -11.616  1.00  0.00     0.126 A 
HETATM   16  C   UNL     1     -20.037   4.624 -12.659  1.00  0.00     0.234 A 
HETATM   17  O   UNL     1     -20.483   4.847 -13.781  1.00  0.00    -0.272 OA
HETATM   18  N   UNL     1     -18.725   4.706 -12.315  1.00  0.00    -0.288 N 
ENDROOT
BRANCH  18  19
HETATM   19  C   UNL     1     -17.735   5.144 -13.317  1.00  0.00     0.135 C 
BRANCH  19  20
HETATM   20  C   UNL     1     -17.500   6.657 -13.289  1.00  0.00     0.020 C 
BRANCH  20  21
HETATM   21  C   UNL     1     -16.061   6.972 -13.618  1.00  0.00     0.002 C 
BRANCH  21  22
HETATM   22  C   UNL     1     -15.383   5.737 -14.181  1.00  0.00     0.010 C 
BRANCH  22  23
HETATM   23  C   UNL     1     -14.005   5.578 -13.539  1.00  0.00     0.113 C 
BRANCH  23  24
HETATM   24  C   UNL     1     -13.557   4.135 -13.686  1.00  0.00     0.172 C 
HETATM   25  O   UNL     1     -14.219   3.289 -13.066  1.00  0.00    -0.648 OA
HETATM   26  O   UNL     1     -12.567   3.909 -14.422  1.00  0.00    -0.648 OA
ENDBRANCH  23  24
ENDBRANCH  22  23
ENDBRANCH  21  22
ENDBRANCH  20  21
ENDBRANCH  19  20
ENDBRANCH  18  19
TORSDOF 6
ENDMDL
MODEL 4
REMARK VINA RESULT:    -9.397      1.774      3.442
REMARK INTER + INTRA:         -13.398
REMARK INTER:                 -12.564
REMARK INTRA:                  -0.834
REMARK UNBOUND:                -0.704
REMARK  6 active torsions:
REMARK  status: ('A' for Active; 'I' for Inactive)
REMARK    1  A    between atoms: N_18  and  C_19 
REMARK    2  A    between atoms: C_19  and  C_20 
REMARK    3  A    between atoms: C_20  and  C_21 
REMARK    4  A    between atoms: C_21  and  C_22 
REMARK    5  A    between atoms: C_22  and  C_23 
REMARK    6  A    between atoms: C_23  and  C_24 
ROOT
HETATM    1  O   UNL     1     -21.554   6.987 -14.015  1.00  0.00    -0.272 OA
HETATM    2  C   UNL     1     -20.817   7.115 -13.025  1.00  0.00     0.234 A 
HETATM    3  C   UNL     1     -21.314   6.921 -11.725  1.00  0.00     0.126 A 
HETATM    4  C   UNL     1     -21.630   5.437 -11.330  1.00  0.00     0.126 C 
HETATM    5  C   UNL     1     -21.411   5.473  -9.816  1.00  0.00     0.167 C 
HETATM    6 CL   UNL     1     -22.566   6.614  -8.824  1.00  0.00    -0.097 Cl
HETATM    7 CL   UNL     1     -21.662   3.826  -9.004  1.00  0.00    -0.097 Cl
HETATM    8 CL   UNL     1     -23.275   4.871 -11.839  1.00  0.00    -0.108 Cl
HETATM    9  C   UNL     1     -20.566   4.604 -11.707  1.00  0.00     0.059 C 
HETATM   10 CL   UNL     1     -20.681   3.489 -13.060  1.00  0.00    -0.085 Cl
HETATM   11  C   UNL     1     -19.537   4.841 -10.895  1.00  0.00     0.059 C 
HETATM   12 CL   UNL     1     -17.991   4.086 -10.963  1.00  0.00    -0.085 Cl
HETATM   13  C   UNL     1     -19.964   5.877 -10.005  1.00  0.00     0.126 C 
HETATM   14 CL   UNL     1     -19.110   6.028  -8.445  1.00  0.00    -0.108 Cl
HETATM   15  C   UNL     1     -20.156   7.212 -10.825  1.00  0.00     0.126 A 
HETATM   16  C   UNL     1     -19.128   7.514 -11.700  1.00  0.00     0.234 A 
HETATM   17  O   UNL     1     -18.005   7.826 -11.315  1.00  0.00    -0.272 OA
HETATM   18  N   UNL     1     -19.524   7.493 -13.000  1.00  0.00    -0.288 N 
ENDROOT
BRANCH  18  19
HETATM   19  C   UNL     1     -18.551   7.809 -14.064  1.00  0.00     0.135 C 
BRANCH  19  20
HETATM   20  C   UNL     1     -17.835   6.564 -14.593  1.00  0.00     0.020 C 
BRANCH  20  21
HETATM   21  C   UNL     1     -16.398   6.885 -14.925  1.00  0.00     0.002 C 
BRANCH  21  22
HETATM   22  C   UNL     1     -15.496   6.412 -13.799  1.00  0.00     0.010 C 
BRANCH  22  23
HETATM   23  C   UNL     1     -15.811   4.952 -13.477  1.00  0.00     0.113 C 
BRANCH  23  24
HETATM   24  C   UNL     1     -14.506   4.187 -13.335  1.00  0.00     0.172 C 
HETATM   25  O   UNL     1     -13.474   4.802 -13.642  1.00  0.00    -0.648 OA
HETATM   26  O   UNL     1     -14.571   3.007 -12.916  1.00  0.00    -0.648 OA
ENDBRANCH  23  24
ENDBRANCH  22  23
ENDBRANCH  21  22
ENDBRANCH  20  21
ENDBRANCH  19  20
ENDBRANCH  18  19
TORSDOF 6
ENDMDL
MODEL 5
REMARK VINA RESULT:    -8.748      2.057      3.329
REMARK INTER + INTRA:         -12.521
REMARK INTER:                 -11.741
REMARK INTRA:                  -0.780
REMARK UNBOUND:                -0.704
REMARK  6 active torsions:
REMARK  status: ('A' for Active; 'I' for Inactive)
REMARK    1  A    between atoms: N_18  and  C_19 
REMARK    2  A    between atoms: C_19  and  C_20 
REMARK    3  A    between atoms: C_20  and  C_21 
REMARK    4  A    between atoms: C_21  and  C_22 
REMARK    5  A    between atoms: C_22  and  C_23 
REMARK    6  A    between atoms: C_23  and  C_24 
ROOT
HETATM    1  O   UNL     1     -19.307   5.196 -13.030  1.00  0.00    -0.272 OA
HETATM    2  C   UNL     1     -19.557   6.291 -12.503  1.00  0.00     0.234 A 
HETATM    3  C   UNL     1     -20.779   6.515 -11.847  1.00  0.00     0.126 A 
HETATM    4  C   UNL     1     -20.959   5.784 -10.472  1.00  0.00     0.126 C 
HETATM    5  C   UNL     1     -21.909   6.737  -9.743  1.00  0.00     0.167 C 
HETATM    6 CL   UNL     1     -23.628   6.973 -10.523  1.00  0.00    -0.097 Cl
HETATM    7 CL   UNL     1     -22.311   6.190  -8.019  1.00  0.00    -0.097 Cl
HETATM    8 CL   UNL     1     -21.564   4.082 -10.613  1.00  0.00    -0.108 Cl
HETATM    9  C   UNL     1     -19.806   5.948  -9.688  1.00  0.00     0.059 C 
HETATM   10 CL   UNL     1     -18.676   4.636  -9.397  1.00  0.00    -0.085 Cl
HETATM   11  C   UNL     1     -19.758   7.212  -9.269  1.00  0.00     0.059 C 
HETATM   12 CL   UNL     1     -18.525   7.915  -8.294  1.00  0.00    -0.085 Cl
HETATM   13  C   UNL     1     -20.900   7.862  -9.836  1.00  0.00     0.126 C 
HETATM   14 CL   UNL     1     -21.486   9.346  -9.036  1.00  0.00    -0.108 Cl
HETATM   15  C   UNL     1     -20.720   7.941 -11.402  1.00  0.00     0.126 A 
HETATM   16  C   UNL     1     -19.473   8.366 -11.827  1.00  0.00     0.234 A 
HETATM   17  O   UNL     1     -19.071   9.512 -11.649  1.00  0.00    -0.272 OA
HETATM   18  N   UNL     1     -18.798   7.405 -12.510  1.00  0.00    -0.288 N 
ENDROOT
BRANCH  18  19
HETATM   19  C   UNL     1     -17.455   7.699 -13.048  1.00  0.00     0.135 C 
BRANCH  19  20
HETATM   20  C   UNL     1     -17.381   7.529 -14.567  1.00  0.00     0.020 C 
BRANCH  20  21
HETATM   21  C   UNL     1     -16.246   6.606 -14.938  1.00  0.00     0.002 C 
BRANCH  21  22
HETATM   22  C   UNL     1     -15.363   6.368 -13.727  1.00  0.00     0.010 C 
BRANCH  22  23
HETATM   23  C   UNL     1     -14.581   5.069 -13.916  1.00  0.00     0.113 C 
BRANCH  23  24
HETATM   24  C   UNL     1     -15.158   4.009 -12.994  1.00  0.00     0.172 C 
HETATM   25  O   UNL     1     -16.132   4.351 -12.308  1.00  0.00    -0.648 OA
HETATM   26  O   UNL     1     -14.616   2.879 -13.004  1.00  0.00    -0.648 OA
ENDBRANCH  23  24
ENDBRANCH  22  23
ENDBRANCH  21  22
ENDBRANCH  20  21
ENDBRANCH  19  20
ENDBRANCH  18  19
TORSDOF 6
ENDMDL
MODEL 6
REMARK VINA RESULT:    -8.615      2.930      4.528
REMARK INTER + INTRA:         -12.341
REMARK INTER:                 -11.477
REMARK INTRA:                  -0.864
REMARK UNBOUND:                -0.704
REMARK  6 active torsions:
REMARK  status: ('A' for Active; 'I' for Inactive)
REMARK    1  A    between atoms: N_18  and  C_19 
REMARK    2  A    between atoms: C_19  and  C_20 
REMARK    3  A    between atoms: C_20  and  C_21 
REMARK    4  A    between atoms: C_21  and  C_22 
REMARK    5  A    between atoms: C_22  and  C_23 
REMARK    6  A    between atoms: C_23  and  C_24 
ROOT
HETATM    1  O   UNL     1     -20.539   7.243 -13.881  1.00  0.00    -0.272 OA
HETATM    2  C   UNL     1     -20.249   7.280 -12.675  1.00  0.00     0.234 A 
HETATM    3  C   UNL     1     -21.203   6.965 -11.693  1.00  0.00     0.126 A 
HETATM    4  C   UNL     1     -21.591   5.451 -11.579  1.00  0.00     0.126 C 
HETATM    5  C   UNL     1     -21.978   5.346 -10.103  1.00  0.00     0.167 C 
HETATM    6 CL   UNL     1     -23.469   6.389  -9.546  1.00  0.00    -0.097 Cl
HETATM    7 CL   UNL     1     -22.462   3.632  -9.594  1.00  0.00    -0.097 Cl
HETATM    8 CL   UNL     1     -22.888   4.931 -12.734  1.00  0.00    -0.108 Cl
HETATM    9  C   UNL     1     -20.433   4.658 -11.581  1.00  0.00     0.059 C 
HETATM   10 CL   UNL     1     -19.973   3.673 -12.960  1.00  0.00    -0.085 Cl
HETATM   11  C   UNL     1     -19.810   4.821 -10.415  1.00  0.00     0.059 C 
HETATM   12 CL   UNL     1     -18.331   4.078  -9.939  1.00  0.00    -0.085 Cl
HETATM   13  C   UNL     1     -20.587   5.769  -9.677  1.00  0.00     0.126 C 
HETATM   14 CL   UNL     1     -20.412   5.776  -7.901  1.00  0.00    -0.108 Cl
HETATM   15  C   UNL     1     -20.497   7.173 -10.391  1.00  0.00     0.126 A 
HETATM   16  C   UNL     1     -19.222   7.557 -10.768  1.00  0.00     0.234 A 
HETATM   17  O   UNL     1     -18.348   7.834  -9.951  1.00  0.00    -0.272 OA
HETATM   18  N   UNL     1     -19.081   7.656 -12.116  1.00  0.00    -0.288 N 
ENDROOT
BRANCH  18  19
HETATM   19  C   UNL     1     -17.785   8.071 -12.686  1.00  0.00     0.135 C 
BRANCH  19  20
HETATM   20  C   UNL     1     -16.848   6.886 -12.939  1.00  0.00     0.020 C 
BRANCH  20  21
HETATM   21  C   UNL     1     -16.244   6.979 -14.319  1.00  0.00     0.002 C 
BRANCH  21  22
HETATM   22  C   UNL     1     -17.331   7.283 -15.334  1.00  0.00     0.010 C 
BRANCH  22  23
HETATM   23  C   UNL     1     -16.808   8.300 -16.347  1.00  0.00     0.113 C 
BRANCH  23  24
HETATM   24  C   UNL     1     -17.652   9.559 -16.260  1.00  0.00     0.172 C 
HETATM   25  O   UNL     1     -18.766   9.436 -15.730  1.00  0.00    -0.648 OA
HETATM   26  O   UNL     1     -17.161  10.617 -16.720  1.00  0.00    -0.648 OA
ENDBRANCH  23  24
ENDBRANCH  22  23
ENDBRANCH  21  22
ENDBRANCH  20  21
ENDBRANCH  19  20
ENDBRANCH  18  19
TORSDOF 6
ENDMDL
MODEL 7
REMARK VINA RESULT:    -8.604      1.647      2.017
REMARK INTER + INTRA:         -12.326
REMARK INTER:                 -11.578
REMARK INTRA:                  -0.748
REMARK UNBOUND:                -0.704
REMARK  6 active torsions:
REMARK  status: ('A' for Active; 'I' for Inactive)
REMARK    1  A    between atoms: N_18  and  C_19 
REMARK    2  A    between atoms: C_19  and  C_20 
REMARK    3  A    between atoms: C_20  and  C_21 
REMARK    4  A    between atoms: C_21  and  C_22 
REMARK    5  A    between atoms: C_22  and  C_23 
REMARK    6  A    between atoms: C_23  and  C_24 
ROOT
HETATM    1  O   UNL     1     -18.108   8.111 -11.248  1.00  0.00    -0.272 OA
HETATM    2  C   UNL     1     -18.728   7.056 -11.453  1.00  0.00     0.234 A 
HETATM    3  C   UNL     1     -19.169   6.258 -10.383  1.00  0.00     0.126 A 
HETATM    4  C   UNL     1     -20.368   6.832  -9.553  1.00  0.00     0.126 C 
HETATM    5  C   UNL     1     -21.033   5.548  -9.053  1.00  0.00     0.167 C 
HETATM    6 CL   UNL     1     -19.986   4.447  -7.908  1.00  0.00    -0.097 Cl
HETATM    7 CL   UNL     1     -22.556   5.859  -8.045  1.00  0.00    -0.097 Cl
HETATM    8 CL   UNL     1     -19.877   7.983  -8.243  1.00  0.00    -0.108 Cl
HETATM    9  C   UNL     1     -21.370   7.300 -10.418  1.00  0.00     0.059 C 
HETATM   10 CL   UNL     1     -21.679   9.012 -10.656  1.00  0.00    -0.085 Cl
HETATM   11  C   UNL     1     -21.965   6.249 -10.981  1.00  0.00     0.059 C 
HETATM   12 CL   UNL     1     -23.243   6.299 -12.133  1.00  0.00    -0.085 Cl
HETATM   13  C   UNL     1     -21.292   5.092 -10.474  1.00  0.00     0.126 C 
HETATM   14 CL   UNL     1     -22.169   3.539 -10.522  1.00  0.00    -0.108 Cl
HETATM   15  C   UNL     1     -19.814   5.074 -11.029  1.00  0.00     0.126 A 
HETATM   16  C   UNL     1     -19.695   5.333 -12.383  1.00  0.00     0.234 A 
HETATM   17  O   UNL     1     -20.105   4.557 -13.242  1.00  0.00    -0.272 OA
HETATM   18  N   UNL     1     -19.022   6.486 -12.638  1.00  0.00    -0.288 N 
ENDROOT
BRANCH  18  19
HETATM   19  C   UNL     1     -18.792   6.902 -14.035  1.00  0.00     0.135 C 
BRANCH  19  20
HETATM   20  C   UNL     1     -17.734   6.047 -14.737  1.00  0.00     0.020 C 
BRANCH  20  21
HETATM   21  C   UNL     1     -16.426   6.795 -14.823  1.00  0.00     0.002 C 
BRANCH  21  22
HETATM   22  C   UNL     1     -15.584   6.496 -13.595  1.00  0.00     0.010 C 
BRANCH  22  23
HETATM   23  C   UNL     1     -14.753   5.238 -13.844  1.00  0.00     0.113 C 
BRANCH  23  24
HETATM   24  C   UNL     1     -15.226   4.142 -12.906  1.00  0.00     0.172 C 
HETATM   25  O   UNL     1     -14.617   3.063 -12.973  1.00  0.00    -0.648 OA
HETATM   26  O   UNL     1     -16.179   4.410 -12.137  1.00  0.00    -0.648 OA
ENDBRANCH  23  24
ENDBRANCH  22  23
ENDBRANCH  21  22
ENDBRANCH  20  21
ENDBRANCH  19  20
ENDBRANCH  18  19
TORSDOF 6
ENDMDL
MODEL 8
REMARK VINA RESULT:    -8.547      2.575      3.765
REMARK INTER + INTRA:         -12.249
REMARK INTER:                 -11.325
REMARK INTRA:                  -0.924
REMARK UNBOUND:                -0.704
REMARK  6 active torsions:
REMARK  status: ('A' for Active; 'I' for Inactive)
REMARK    1  A    between atoms: N_18  and  C_19 
REMARK    2  A    between atoms: C_19  and  C_20 
REMARK    3  A    between atoms: C_20  and  C_21 
REMARK    4  A    between atoms: C_21  and  C_22 
REMARK    5  A    between atoms: C_22  and  C_23 
REMARK    6  A    between atoms: C_23  and  C_24 
ROOT
HETATM    1  O   UNL     1     -18.483   8.349 -12.176  1.00  0.00    -0.272 OA
HETATM    2  C   UNL     1     -18.711   7.289 -11.573  1.00  0.00     0.234 A 
HETATM    3  C   UNL     1     -19.640   7.243 -10.520  1.00  0.00     0.126 A 
HETATM    4  C   UNL     1     -21.148   7.363 -10.934  1.00  0.00     0.126 C 
HETATM    5  C   UNL     1     -21.834   6.577  -9.815  1.00  0.00     0.167 C 
HETATM    6 CL   UNL     1     -21.641   7.275  -8.055  1.00  0.00    -0.097 Cl
HETATM    7 CL   UNL     1     -23.672   6.473 -10.017  1.00  0.00    -0.097 Cl
HETATM    8 CL   UNL     1     -21.730   9.069 -11.121  1.00  0.00    -0.108 Cl
HETATM    9  C   UNL     1     -21.415   6.515 -12.021  1.00  0.00     0.059 C 
HETATM   10 CL   UNL     1     -21.687   7.128 -13.644  1.00  0.00    -0.085 Cl
HETATM   11  C   UNL     1     -21.397   5.255 -11.586  1.00  0.00     0.059 C 
HETATM   12 CL   UNL     1     -21.648   3.846 -12.542  1.00  0.00    -0.085 Cl
HETATM   13  C   UNL     1     -21.079   5.320 -10.193  1.00  0.00     0.126 C 
HETATM   14 CL   UNL     1     -21.550   3.933  -9.174  1.00  0.00    -0.108 Cl
HETATM   15  C   UNL     1     -19.594   5.832 -10.029  1.00  0.00     0.126 A 
HETATM   16  C   UNL     1     -18.671   5.225 -10.862  1.00  0.00     0.234 A 
HETATM   17  O   UNL     1     -18.355   4.044 -10.746  1.00  0.00    -0.272 OA
HETATM   18  N   UNL     1     -18.121   6.091 -11.752  1.00  0.00    -0.288 N 
ENDROOT
BRANCH  18  19
HETATM   19  C   UNL     1     -17.103   5.608 -12.706  1.00  0.00     0.135 C 
BRANCH  19  20
HETATM   20  C   UNL     1     -17.717   5.091 -14.009  1.00  0.00     0.020 C 
BRANCH  20  21
HETATM   21  C   UNL     1     -17.946   6.231 -14.972  1.00  0.00     0.002 C 
BRANCH  21  22
HETATM   22  C   UNL     1     -16.729   7.139 -14.989  1.00  0.00     0.010 C 
BRANCH  22  23
HETATM   23  C   UNL     1     -16.795   8.052 -16.211  1.00  0.00     0.113 C 
BRANCH  23  24
HETATM   24  C   UNL     1     -17.543   9.321 -15.838  1.00  0.00     0.172 C 
HETATM   25  O   UNL     1     -17.255   9.823 -14.742  1.00  0.00    -0.648 OA
HETATM   26  O   UNL     1     -18.378   9.762 -16.662  1.00  0.00    -0.648 OA
ENDBRANCH  23  24
ENDBRANCH  22  23
ENDBRANCH  21  22
ENDBRANCH  20  21
ENDBRANCH  19  20
ENDBRANCH  18  19
TORSDOF 6
ENDMDL
MODEL 9
REMARK VINA RESULT:    -8.440      4.362      6.352
REMARK INTER + INTRA:         -12.105
REMARK INTER:                 -10.812
REMARK INTRA:                  -1.293
REMARK UNBOUND:                -0.704
REMARK  6 active torsions:
REMARK  status: ('A' for Active; 'I' for Inactive)
REMARK    1  A    between atoms: N_18  and  C_19 
REMARK    2  A    between atoms: C_19  and  C_20 
REMARK    3  A    between atoms: C_20  and  C_21 
REMARK    4  A    between atoms: C_21  and  C_22 
REMARK    5  A    between atoms: C_22  and  C_23 
REMARK    6  A    between atoms: C_23  and  C_24 
ROOT
HETATM    1  O   UNL     1     -21.732   6.997 -13.155  1.00  0.00    -0.272 OA
HETATM    2  C   UNL     1     -21.119   7.372 -12.143  1.00  0.00     0.234 A 
HETATM    3  C   UNL     1     -19.768   7.749 -12.216  1.00  0.00     0.126 A 
HETATM    4  C   UNL     1     -19.478   9.115 -12.929  1.00  0.00     0.126 C 
HETATM    5  C   UNL     1     -18.194   9.558 -12.226  1.00  0.00     0.167 C 
HETATM    6 CL   UNL     1     -16.677   8.433 -12.453  1.00  0.00    -0.097 Cl
HETATM    7 CL   UNL     1     -17.574  11.205 -12.808  1.00  0.00    -0.097 Cl
HETATM    8 CL   UNL     1     -19.344   8.993 -14.733  1.00  0.00    -0.108 Cl
HETATM    9  C   UNL     1     -20.361  10.099 -12.458  1.00  0.00     0.059 C 
HETATM   10 CL   UNL     1     -21.684  10.716 -13.434  1.00  0.00    -0.085 Cl
HETATM   11  C   UNL     1     -20.013  10.415 -11.212  1.00  0.00     0.059 C 
HETATM   12 CL   UNL     1     -20.803  11.558 -10.194  1.00  0.00    -0.085 Cl
HETATM   13  C   UNL     1     -18.898   9.580 -10.886  1.00  0.00     0.126 C 
HETATM   14 CL   UNL     1     -17.815  10.123  -9.576  1.00  0.00    -0.108 Cl
HETATM   15  C   UNL     1     -19.386   8.080 -10.809  1.00  0.00     0.126 A 
HETATM   16  C   UNL     1     -20.555   7.881 -10.096  1.00  0.00     0.234 A 
HETATM   17  O   UNL     1     -20.622   8.043  -8.881  1.00  0.00    -0.272 OA
HETATM   18  N   UNL     1     -21.572   7.429 -10.875  1.00  0.00    -0.288 N 
ENDROOT
BRANCH  18  19
HETATM   19  C   UNL     1     -22.888   7.149 -10.267  1.00  0.00     0.135 C 
BRANCH  19  20
HETATM   20  C   UNL     1     -23.154   5.650 -10.105  1.00  0.00     0.020 C 
BRANCH  20  21
HETATM   21  C   UNL     1     -22.792   5.199  -8.711  1.00  0.00     0.002 C 
BRANCH  21  22
HETATM   22  C   UNL     1     -21.791   4.061  -8.785  1.00  0.00     0.010 C 
BRANCH  22  23
HETATM   23  C   UNL     1     -20.411   4.573  -8.375  1.00  0.00     0.113 C 
BRANCH  23  24
HETATM   24  C   UNL     1     -19.471   4.459  -9.563  1.00  0.00     0.172 C 
HETATM   25  O   UNL     1     -19.984   4.105 -10.635  1.00  0.00    -0.648 OA
HETATM   26  O   UNL     1     -18.263   4.736  -9.373  1.00  0.00    -0.648 OA
ENDBRANCH  23  24
ENDBRANCH  22  23
ENDBRANCH  21  22
ENDBRANCH  20  21
ENDBRANCH  19  20
ENDBRANCH  18  19
TORSDOF 6
ENDMDL
MODEL 10
REMARK VINA RESULT:    -8.434      2.994      4.372
REMARK INTER + INTRA:         -12.097
REMARK INTER:                 -11.179
REMARK INTRA:                  -0.919
REMARK UNBOUND:                -0.704
REMARK  6 active torsions:
REMARK  status: ('A' for Active; 'I' for Inactive)
REMARK    1  A    between atoms: N_18  and  C_19 
REMARK    2  A    between atoms: C_19  and  C_20 
REMARK    3  A    between atoms: C_20  and  C_21 
REMARK    4  A    between atoms: C_21  and  C_22 
REMARK    5  A    between atoms: C_22  and  C_23 
REMARK    6  A    between atoms: C_23  and  C_24 
ROOT
HETATM    1  O   UNL     1     -21.556   6.839 -13.459  1.00  0.00    -0.272 OA
HETATM    2  C   UNL     1     -21.653   7.498 -12.413  1.00  0.00     0.234 A 
HETATM    3  C   UNL     1     -22.057   6.891 -11.211  1.00  0.00     0.126 A 
HETATM    4  C   UNL     1     -21.008   5.936 -10.543  1.00  0.00     0.126 C 
HETATM    5  C   UNL     1     -21.384   6.059  -9.065  1.00  0.00     0.167 C 
HETATM    6 CL   UNL     1     -23.126   5.463  -8.585  1.00  0.00    -0.097 Cl
HETATM    7 CL   UNL     1     -20.287   5.068  -7.948  1.00  0.00    -0.097 Cl
HETATM    8 CL   UNL     1     -21.036   4.242 -11.187  1.00  0.00    -0.108 Cl
HETATM    9  C   UNL     1     -19.746   6.550 -10.522  1.00  0.00     0.059 C 
HETATM   10 CL   UNL     1     -18.438   6.039 -11.576  1.00  0.00    -0.085 Cl
HETATM   11  C   UNL     1     -19.769   7.530  -9.619  1.00  0.00     0.059 C 
HETATM   12 CL   UNL     1     -18.469   8.591  -9.237  1.00  0.00    -0.085 Cl
HETATM   13  C   UNL     1     -21.096   7.546  -9.085  1.00  0.00     0.126 C 
HETATM   14 CL   UNL     1     -21.329   8.287  -7.478  1.00  0.00    -0.108 Cl
HETATM   15  C   UNL     1     -22.099   8.005 -10.214  1.00  0.00     0.126 A 
HETATM   16  C   UNL     1     -21.696   9.111 -10.941  1.00  0.00     0.234 A 
HETATM   17  O   UNL     1     -21.623  10.233 -10.448  1.00  0.00    -0.272 OA
HETATM   18  N   UNL     1     -21.466   8.823 -12.249  1.00  0.00    -0.288 N 
ENDROOT
BRANCH  18  19
HETATM   19  C   UNL     1     -21.043   9.896 -13.169  1.00  0.00     0.135 C 
BRANCH  19  20
HETATM   20  C   UNL     1     -19.524   9.953 -13.347  1.00  0.00     0.020 C 
BRANCH  20  21
HETATM   21  C   UNL     1     -19.095   9.075 -14.497  1.00  0.00     0.002 C 
BRANCH  21  22
HETATM   22  C   UNL     1     -17.639   8.682 -14.327  1.00  0.00     0.010 C 
BRANCH  22  23
HETATM   23  C   UNL     1     -17.233   7.738 -15.457  1.00  0.00     0.113 C 
BRANCH  23  24
HETATM   24  C   UNL     1     -16.842   6.397 -14.861  1.00  0.00     0.172 C 
HETATM   25  O   UNL     1     -15.662   6.282 -14.498  1.00  0.00    -0.648 OA
HETATM   26  O   UNL     1     -17.734   5.520 -14.774  1.00  0.00    -0.648 OA
ENDBRANCH  23  24
ENDBRANCH  22  23
ENDBRANCH  21  22
ENDBRANCH  20  21
ENDBRANCH  19  20
ENDBRANCH  18  19
TORSDOF 6
ENDMDL
MODEL 11
REMARK VINA RESULT:    -8.355      2.429      3.813
REMARK INTER + INTRA:         -11.990
REMARK INTER:                 -11.468
REMARK INTRA:                  -0.523
REMARK UNBOUND:                -0.704
REMARK  6 active torsions:
REMARK  status: ('A' for Active; 'I' for Inactive)
REMARK    1  A    between atoms: N_18  and  C_19 
REMARK    2  A    between atoms: C_19  and  C_20 
REMARK    3  A    between atoms: C_20  and  C_21 
REMARK    4  A    between atoms: C_21  and  C_22 
REMARK    5  A    between atoms: C_22  and  C_23 
REMARK    6  A    between atoms: C_23  and  C_24 
ROOT
HETATM    1  O   UNL     1     -20.456   7.616 -12.903  1.00  0.00    -0.272 OA
HETATM    2  C   UNL     1     -20.076   6.769 -12.080  1.00  0.00     0.234 A 
HETATM    3  C   UNL     1     -19.681   7.147 -10.785  1.00  0.00     0.126 A 
HETATM    4  C   UNL     1     -20.835   7.599  -9.825  1.00  0.00     0.126 C 
HETATM    5  C   UNL     1     -20.259   7.219  -8.459  1.00  0.00     0.167 C 
HETATM    6 CL   UNL     1     -18.663   8.115  -7.939  1.00  0.00    -0.097 Cl
HETATM    7 CL   UNL     1     -21.411   7.583  -7.055  1.00  0.00    -0.097 Cl
HETATM    8 CL   UNL     1     -21.292   9.345  -9.989  1.00  0.00    -0.108 Cl
HETATM    9  C   UNL     1     -21.902   6.690  -9.897  1.00  0.00     0.059 C 
HETATM   10 CL   UNL     1     -23.415   7.082 -10.696  1.00  0.00    -0.085 Cl
HETATM   11  C   UNL     1     -21.534   5.560  -9.294  1.00  0.00     0.059 C 
HETATM   12 CL   UNL     1     -22.486   4.134  -9.136  1.00  0.00    -0.085 Cl
HETATM   13  C   UNL     1     -20.185   5.761  -8.862  1.00  0.00     0.126 C 
HETATM   14 CL   UNL     1     -19.584   4.736  -7.530  1.00  0.00    -0.108 Cl
HETATM   15  C   UNL     1     -19.251   5.873 -10.129  1.00  0.00     0.126 A 
HETATM   16  C   UNL     1     -19.467   4.913 -11.102  1.00  0.00     0.234 A 
HETATM   17  O   UNL     1     -19.209   3.726 -10.926  1.00  0.00    -0.272 OA
HETATM   18  N   UNL     1     -19.921   5.443 -12.268  1.00  0.00    -0.288 N 
ENDROOT
BRANCH  18  19
HETATM   19  C   UNL     1     -20.188   4.556 -13.417  1.00  0.00     0.135 C 
BRANCH  19  20
HETATM   20  C   UNL     1     -18.904   4.062 -14.089  1.00  0.00     0.020 C 
BRANCH  20  21
HETATM   21  C   UNL     1     -17.762   5.007 -13.801  1.00  0.00     0.002 C 
BRANCH  21  22
HETATM   22  C   UNL     1     -17.677   6.054 -14.897  1.00  0.00     0.010 C 
BRANCH  22  23
HETATM   23  C   UNL     1     -16.469   6.954 -14.644  1.00  0.00     0.113 C 
BRANCH  23  24
HETATM   24  C   UNL     1     -16.840   7.994 -13.601  1.00  0.00     0.172 C 
HETATM   25  O   UNL     1     -16.348   7.838 -12.473  1.00  0.00    -0.648 OA
HETATM   26  O   UNL     1     -17.600   8.925 -13.957  1.00  0.00    -0.648 OA
ENDBRANCH  23  24
ENDBRANCH  22  23
ENDBRANCH  21  22
ENDBRANCH  20  21
ENDBRANCH  19  20
ENDBRANCH  18  19
TORSDOF 6
ENDMDL
MODEL 12
REMARK VINA RESULT:    -8.172      4.254      6.313
REMARK INTER + INTRA:         -11.742
REMARK INTER:                 -10.445
REMARK INTRA:                  -1.297
REMARK UNBOUND:                -0.704
REMARK  6 active torsions:
REMARK  status: ('A' for Active; 'I' for Inactive)
REMARK    1  A    between atoms: N_18  and  C_19 
REMARK    2  A    between atoms: C_19  and  C_20 
REMARK    3  A    between atoms: C_20  and  C_21 
REMARK    4  A    between atoms: C_21  and  C_22 
REMARK    5  A    between atoms: C_22  and  C_23 
REMARK    6  A    between atoms: C_23  and  C_24 
ROOT
HETATM    1  O   UNL     1     -22.767   8.183 -10.653  1.00  0.00    -0.272 OA
HETATM    2  C   UNL     1     -21.587   7.826 -10.794  1.00  0.00     0.234 A 
HETATM    3  C   UNL     1     -20.876   8.132 -11.967  1.00  0.00     0.126 A 
HETATM    4  C   UNL     1     -20.469   9.636 -12.145  1.00  0.00     0.126 C 
HETATM    5  C   UNL     1     -19.198   9.508 -12.987  1.00  0.00     0.167 C 
HETATM    6 CL   UNL     1     -19.403   8.736 -14.713  1.00  0.00    -0.097 Cl
HETATM    7 CL   UNL     1     -18.402  11.140 -13.357  1.00  0.00    -0.097 Cl
HETATM    8 CL   UNL     1     -21.761  10.668 -12.886  1.00  0.00    -0.108 Cl
HETATM    9  C   UNL     1     -19.919  10.128 -10.951  1.00  0.00     0.059 C 
HETATM   10 CL   UNL     1     -20.781  11.253  -9.915  1.00  0.00    -0.085 Cl
HETATM   11  C   UNL     1     -18.713   9.585 -10.788  1.00  0.00     0.059 C 
HETATM   12 CL   UNL     1     -17.646   9.855  -9.464  1.00  0.00    -0.085 Cl
HETATM   13  C   UNL     1     -18.521   8.702 -11.897  1.00  0.00     0.126 C 
HETATM   14 CL   UNL     1     -16.843   8.278 -12.333  1.00  0.00    -0.108 Cl
HETATM   15  C   UNL     1     -19.535   7.498 -11.778  1.00  0.00     0.126 A 
HETATM   16  C   UNL     1     -19.617   6.925 -10.521  1.00  0.00     0.234 A 
HETATM   17  O   UNL     1     -18.690   6.291 -10.024  1.00  0.00    -0.272 OA
HETATM   18  N   UNL     1     -20.840   7.086  -9.951  1.00  0.00    -0.288 N 
ENDROOT
BRANCH  18  19
HETATM   19  C   UNL     1     -21.102   6.520  -8.614  1.00  0.00     0.135 C 
BRANCH  19  20
HETATM   20  C   UNL     1     -21.361   5.012  -8.655  1.00  0.00     0.020 C 
BRANCH  20  21
HETATM   21  C   UNL     1     -22.743   4.730  -9.191  1.00  0.00     0.002 C 
BRANCH  21  22
HETATM   22  C   UNL     1     -22.653   3.755 -10.350  1.00  0.00     0.010 C 
BRANCH  22  23
HETATM   23  C   UNL     1     -22.819   4.514 -11.665  1.00  0.00     0.113 C 
BRANCH  23  24
HETATM   24  C   UNL     1     -21.560   4.342 -12.497  1.00  0.00     0.172 C 
HETATM   25  O   UNL     1     -21.638   4.683 -13.686  1.00  0.00    -0.648 OA
HETATM   26  O   UNL     1     -20.546   3.880 -11.921  1.00  0.00    -0.648 OA
ENDBRANCH  23  24
ENDBRANCH  22  23
ENDBRANCH  21  22
ENDBRANCH  20  21
ENDBRANCH  19  20
ENDBRANCH  18  19
TORSDOF 6
ENDMDL
MODEL 13
REMARK VINA RESULT:    -8.144      3.633      5.912
REMARK INTER + INTRA:         -11.705
REMARK INTER:                 -10.700
REMARK INTRA:                  -1.005
REMARK UNBOUND:                -0.704
REMARK  6 active torsions:
REMARK  status: ('A' for Active; 'I' for Inactive)
REMARK    1  A    between atoms: N_18  and  C_19 
REMARK    2  A    between atoms: C_19  and  C_20 
REMARK    3  A    between atoms: C_20  and  C_21 
REMARK    4  A    between atoms: C_21  and  C_22 
REMARK    5  A    between atoms: C_22  and  C_23 
REMARK    6  A    between atoms: C_23  and  C_24 
ROOT
HETATM    1  O   UNL     1     -20.529   7.376 -13.663  1.00  0.00    -0.272 OA
HETATM    2  C   UNL     1     -20.300   7.382 -12.444  1.00  0.00     0.234 A 
HETATM    3  C   UNL     1     -21.284   6.983 -11.523  1.00  0.00     0.126 A 
HETATM    4  C   UNL     1     -21.597   5.447 -11.482  1.00  0.00     0.126 C 
HETATM    5  C   UNL     1     -22.049   5.268 -10.032  1.00  0.00     0.167 C 
HETATM    6 CL   UNL     1     -23.617   6.212  -9.515  1.00  0.00    -0.097 Cl
HETATM    7 CL   UNL     1     -22.466   3.513  -9.609  1.00  0.00    -0.097 Cl
HETATM    8 CL   UNL     1     -22.807   4.907 -12.719  1.00  0.00    -0.108 Cl
HETATM    9  C   UNL     1     -20.400   4.714 -11.454  1.00  0.00     0.059 C 
HETATM   10 CL   UNL     1     -19.822   3.807 -12.842  1.00  0.00    -0.085 Cl
HETATM   11  C   UNL     1     -19.843   4.865 -10.252  1.00  0.00     0.059 C 
HETATM   12 CL   UNL     1     -18.353   4.180  -9.729  1.00  0.00    -0.085 Cl
HETATM   13  C   UNL     1     -20.704   5.744  -9.522  1.00  0.00     0.126 C 
HETATM   14 CL   UNL     1     -20.615   5.693  -7.741  1.00  0.00    -0.108 Cl
HETATM   15  C   UNL     1     -20.653   7.177 -10.181  1.00  0.00     0.126 A 
HETATM   16  C   UNL     1     -19.383   7.639 -10.479  1.00  0.00     0.234 A 
HETATM   17  O   UNL     1     -18.566   7.928  -9.610  1.00  0.00    -0.272 OA
HETATM   18  N   UNL     1     -19.183   7.795 -11.814  1.00  0.00    -0.288 N 
ENDROOT
BRANCH  18  19
HETATM   19  C   UNL     1     -17.884   8.296 -12.303  1.00  0.00     0.135 C 
BRANCH  19  20
HETATM   20  C   UNL     1     -17.811   9.825 -12.318  1.00  0.00     0.020 C 
BRANCH  20  21
HETATM   21  C   UNL     1     -18.788  10.389 -13.321  1.00  0.00     0.002 C 
BRANCH  21  22
HETATM   22  C   UNL     1     -19.732  11.354 -12.629  1.00  0.00     0.010 C 
BRANCH  22  23
HETATM   23  C   UNL     1     -21.174  10.998 -12.988  1.00  0.00     0.113 C 
BRANCH  23  24
HETATM   24  C   UNL     1     -22.061  11.262 -11.783  1.00  0.00     0.172 C 
HETATM   25  O   UNL     1     -22.120  10.356 -10.939  1.00  0.00    -0.648 OA
HETATM   26  O   UNL     1     -22.652  12.366 -11.732  1.00  0.00    -0.648 OA
ENDBRANCH  23  24
ENDBRANCH  22  23
ENDBRANCH  21  22
ENDBRANCH  20  21
ENDBRANCH  19  20
ENDBRANCH  18  19
TORSDOF 6
ENDMDL
MODEL 14
REMARK VINA RESULT:    -8.104      4.097      6.159
REMARK INTER + INTRA:         -11.651
REMARK INTER:                 -10.500
REMARK INTRA:                  -1.151
REMARK UNBOUND:                -0.704
REMARK  6 active torsions:
REMARK  status: ('A' for Active; 'I' for Inactive)
REMARK    1  A    between atoms: N_18  and  C_19 
REMARK    2  A    between atoms: C_19  and  C_20 
REMARK    3  A    between atoms: C_20  and  C_21 
REMARK    4  A    between atoms: C_21  and  C_22 
REMARK    5  A    between atoms: C_22  and  C_23 
REMARK    6  A    between atoms: C_23  and  C_24 
ROOT
HETATM    1  O   UNL     1     -22.420   7.480 -11.441  1.00  0.00    -0.272 OA
HETATM    2  C   UNL     1     -21.197   7.531 -11.239  1.00  0.00     0.234 A 
HETATM    3  C   UNL     1     -20.282   7.256 -12.271  1.00  0.00     0.126 A 
HETATM    4  C   UNL     1     -20.169   8.349 -13.390  1.00  0.00     0.126 C 
HETATM    5  C   UNL     1     -18.724   8.158 -13.854  1.00  0.00     0.167 C 
HETATM    6 CL   UNL     1     -18.300   6.470 -14.622  1.00  0.00    -0.097 Cl
HETATM    7 CL   UNL     1     -18.220   9.351 -15.180  1.00  0.00    -0.097 Cl
HETATM    8 CL   UNL     1     -21.408   8.192 -14.704  1.00  0.00    -0.108 Cl
HETATM    9  C   UNL     1     -20.069   9.622 -12.809  1.00  0.00     0.059 C 
HETATM   10 CL   UNL     1     -21.390  10.778 -12.848  1.00  0.00    -0.085 Cl
HETATM   11  C   UNL     1     -18.862   9.738 -12.255  1.00  0.00     0.059 C 
HETATM   12 CL   UNL     1     -18.263  11.107 -11.399  1.00  0.00    -0.085 Cl
HETATM   13  C   UNL     1     -18.204   8.487 -12.470  1.00  0.00     0.126 C 
HETATM   14 CL   UNL     1     -16.420   8.472 -12.413  1.00  0.00    -0.108 Cl
HETATM   15  C   UNL     1     -18.936   7.369 -11.630  1.00  0.00     0.126 A 
HETATM   16  C   UNL     1     -19.224   7.716 -10.322  1.00  0.00     0.234 A 
HETATM   17  O   UNL     1     -18.349   7.881  -9.476  1.00  0.00    -0.272 OA
HETATM   18  N   UNL     1     -20.559   7.777 -10.078  1.00  0.00    -0.288 N 
ENDROOT
BRANCH  18  19
HETATM   19  C   UNL     1     -21.038   8.118  -8.724  1.00  0.00     0.135 C 
BRANCH  19  20
HETATM   20  C   UNL     1     -21.070   6.907  -7.789  1.00  0.00     0.020 C 
BRANCH  20  21
HETATM   21  C   UNL     1     -21.947   5.821  -8.363  1.00  0.00     0.002 C 
BRANCH  21  22
HETATM   22  C   UNL     1     -21.175   4.516  -8.420  1.00  0.00     0.010 C 
BRANCH  22  23
HETATM   23  C   UNL     1     -19.697   4.790  -8.148  1.00  0.00     0.113 C 
BRANCH  23  24
HETATM   24  C   UNL     1     -18.884   4.342  -9.350  1.00  0.00     0.172 C 
HETATM   25  O   UNL     1     -17.658   4.258  -9.182  1.00  0.00    -0.648 OA
HETATM   26  O   UNL     1     -19.508   4.086 -10.407  1.00  0.00    -0.648 OA
ENDBRANCH  23  24
ENDBRANCH  22  23
ENDBRANCH  21  22
ENDBRANCH  20  21
ENDBRANCH  19  20
ENDBRANCH  18  19
TORSDOF 6
ENDMDL
MODEL 15
REMARK VINA RESULT:    -8.052      3.981      6.412
REMARK INTER + INTRA:         -11.580
REMARK INTER:                 -10.620
REMARK INTRA:                  -0.960
REMARK UNBOUND:                -0.704
REMARK  6 active torsions:
REMARK  status: ('A' for Active; 'I' for Inactive)
REMARK    1  A    between atoms: N_18  and  C_19 
REMARK    2  A    between atoms: C_19  and  C_20 
REMARK    3  A    between atoms: C_20  and  C_21 
REMARK    4  A    between atoms: C_21  and  C_22 
REMARK    5  A    between atoms: C_22  and  C_23 
REMARK    6  A    between atoms: C_23  and  C_24 
ROOT
HETATM    1  O   UNL     1     -17.938   8.976  -9.412  1.00  0.00    -0.272 OA
HETATM    2  C   UNL     1     -18.831   9.467 -10.120  1.00  0.00     0.234 A 
HETATM    3  C   UNL     1     -18.514  10.195 -11.280  1.00  0.00     0.126 A 
HETATM    4  C   UNL     1     -17.982   9.352 -12.490  1.00  0.00     0.126 C 
HETATM    5  C   UNL     1     -18.436  10.205 -13.677  1.00  0.00     0.167 C 
HETATM    6 CL   UNL     1     -17.694  11.952 -13.793  1.00  0.00    -0.097 Cl
HETATM    7 CL   UNL     1     -18.001   9.462 -15.317  1.00  0.00    -0.097 Cl
HETATM    8 CL   UNL     1     -16.200   9.027 -12.437  1.00  0.00    -0.108 Cl
HETATM    9  C   UNL     1     -18.793   8.223 -12.681  1.00  0.00     0.059 C 
HETATM   10 CL   UNL     1     -18.255   6.602 -12.272  1.00  0.00    -0.085 Cl
HETATM   11  C   UNL     1     -19.962   8.623 -13.180  1.00  0.00     0.059 C 
HETATM   12 CL   UNL     1     -21.302   7.614 -13.567  1.00  0.00    -0.085 Cl
HETATM   13  C   UNL     1     -19.887  10.049 -13.272  1.00  0.00     0.126 C 
HETATM   14 CL   UNL     1     -20.986  10.860 -14.420  1.00  0.00    -0.108 Cl
HETATM   15  C   UNL     1     -19.832  10.655 -11.816  1.00  0.00     0.126 A 
HETATM   16  C   UNL     1     -20.751  10.125 -10.926  1.00  0.00     0.234 A 
HETATM   17  O   UNL     1     -21.959  10.312 -11.037  1.00  0.00    -0.272 OA
HETATM   18  N   UNL     1     -20.161   9.453  -9.903  1.00  0.00    -0.288 N 
ENDROOT
BRANCH  18  19
HETATM   19  C   UNL     1     -20.999   8.838  -8.855  1.00  0.00     0.135 C 
BRANCH  19  20
HETATM   20  C   UNL     1     -21.203   7.337  -9.072  1.00  0.00     0.020 C 
BRANCH  20  21
HETATM   21  C   UNL     1     -20.286   6.546  -8.171  1.00  0.00     0.002 C 
BRANCH  21  22
HETATM   22  C   UNL     1     -20.715   5.090  -8.156  1.00  0.00     0.010 C 
BRANCH  22  23
HETATM   23  C   UNL     1     -19.475   4.196  -8.159  1.00  0.00     0.113 C 
BRANCH  23  24
HETATM   24  C   UNL     1     -18.859   4.214  -9.547  1.00  0.00     0.172 C 
HETATM   25  O   UNL     1     -17.635   4.407  -9.600  1.00  0.00    -0.648 OA
HETATM   26  O   UNL     1     -19.624   4.025 -10.521  1.00  0.00    -0.648 OA
ENDBRANCH  23  24
ENDBRANCH  22  23
ENDBRANCH  21  22
ENDBRANCH  20  21
ENDBRANCH  19  20
ENDBRANCH  18  19
TORSDOF 6
ENDMDL
MODEL 16
REMARK VINA RESULT:    -8.040      2.484      3.908
REMARK INTER + INTRA:         -11.564
REMARK INTER:                 -10.489
REMARK INTRA:                  -1.075
REMARK UNBOUND:                -0.704
REMARK  6 active torsions:
REMARK  status: ('A' for Active; 'I' for Inactive)
REMARK    1  A    between atoms: N_18  and  C_19 
REMARK    2  A    between atoms: C_19  and  C_20 
REMARK    3  A    between atoms: C_20  and  C_21 
REMARK    4  A    between atoms: C_21  and  C_22 
REMARK    5  A    between atoms: C_22  and  C_23 
REMARK    6  A    between atoms: C_23  and  C_24 
ROOT
HETATM    1  O   UNL     1     -21.847   9.275 -12.190  1.00  0.00    -0.272 OA
HETATM    2  C   UNL     1     -20.925   8.804 -11.507  1.00  0.00     0.234 A 
HETATM    3  C   UNL     1     -21.181   8.212 -10.258  1.00  0.00     0.126 A 
HETATM    4  C   UNL     1     -21.898   6.818 -10.299  1.00  0.00     0.126 C 
HETATM    5  C   UNL     1     -21.375   6.170  -9.016  1.00  0.00     0.167 C 
HETATM    6 CL   UNL     1     -21.841   7.034  -7.386  1.00  0.00    -0.097 Cl
HETATM    7 CL   UNL     1     -22.002   4.446  -8.761  1.00  0.00    -0.097 Cl
HETATM    8 CL   UNL     1     -23.704   6.919 -10.409  1.00  0.00    -0.108 Cl
HETATM    9  C   UNL     1     -21.284   5.991 -11.253  1.00  0.00     0.059 C 
HETATM   10 CL   UNL     1     -22.047   5.599 -12.785  1.00  0.00    -0.085 Cl
HETATM   11  C   UNL     1     -20.093   5.620 -10.784  1.00  0.00     0.059 C 
HETATM   12 CL   UNL     1     -18.948   4.621 -11.592  1.00  0.00    -0.085 Cl
HETATM   13  C   UNL     1     -19.948   6.262  -9.514  1.00  0.00     0.126 C 
HETATM   14 CL   UNL     1     -18.794   5.548  -8.355  1.00  0.00    -0.108 Cl
HETATM   15  C   UNL     1     -19.835   7.821  -9.736  1.00  0.00     0.126 A 
HETATM   16  C   UNL     1     -18.968   8.207 -10.743  1.00  0.00     0.234 A 
HETATM   17  O   UNL     1     -17.752   8.057 -10.659  1.00  0.00    -0.272 OA
HETATM   18  N   UNL     1     -19.604   8.821 -11.775  1.00  0.00    -0.288 N 
ENDROOT
BRANCH  18  19
HETATM   19  C   UNL     1     -18.821   9.310 -12.927  1.00  0.00     0.135 C 
BRANCH  19  20
HETATM   20  C   UNL     1     -19.075   8.496 -14.198  1.00  0.00     0.020 C 
BRANCH  20  21
HETATM   21  C   UNL     1     -18.659   7.060 -13.995  1.00  0.00     0.002 C 
BRANCH  21  22
HETATM   22  C   UNL     1     -17.146   6.973 -13.909  1.00  0.00     0.010 C 
BRANCH  22  23
HETATM   23  C   UNL     1     -16.693   5.578 -14.338  1.00  0.00     0.113 C 
BRANCH  23  24
HETATM   24  C   UNL     1     -15.559   5.129 -13.433  1.00  0.00     0.172 C 
HETATM   25  O   UNL     1     -14.487   5.741 -13.552  1.00  0.00    -0.648 OA
HETATM   26  O   UNL     1     -15.793   4.189 -12.637  1.00  0.00    -0.648 OA
ENDBRANCH  23  24
ENDBRANCH  22  23
ENDBRANCH  21  22
ENDBRANCH  20  21
ENDBRANCH  19  20
ENDBRANCH  18  19
TORSDOF 6
ENDMDL
MODEL 17
REMARK VINA RESULT:    -8.038      3.150      4.734
REMARK INTER + INTRA:         -11.561
REMARK INTER:                 -11.051
REMARK INTRA:                  -0.510
REMARK UNBOUND:                -0.704
REMARK  6 active torsions:
REMARK  status: ('A' for Active; 'I' for Inactive)
REMARK    1  A    between atoms: N_18  and  C_19 
REMARK    2  A    between atoms: C_19  and  C_20 
REMARK    3  A    between atoms: C_20  and  C_21 
REMARK    4  A    between atoms: C_21  and  C_22 
REMARK    5  A    between atoms: C_22  and  C_23 
REMARK    6  A    between atoms: C_23  and  C_24 
ROOT
HETATM    1  O   UNL     1     -21.329   8.860 -12.519  1.00  0.00    -0.272 OA
HETATM    2  C   UNL     1     -20.432   8.101 -12.120  1.00  0.00     0.234 A 
HETATM    3  C   UNL     1     -20.513   7.489 -10.857  1.00  0.00     0.126 A 
HETATM    4  C   UNL     1     -21.578   6.348 -10.719  1.00  0.00     0.126 C 
HETATM    5  C   UNL     1     -20.945   5.472  -9.636  1.00  0.00     0.167 C 
HETATM    6 CL   UNL     1     -20.709   6.280  -7.929  1.00  0.00    -0.097 Cl
HETATM    7 CL   UNL     1     -21.944   3.962  -9.242  1.00  0.00    -0.097 Cl
HETATM    8 CL   UNL     1     -23.247   6.937 -10.328  1.00  0.00    -0.108 Cl
HETATM    9  C   UNL     1     -21.491   5.475 -11.814  1.00  0.00     0.059 C 
HETATM   10 CL   UNL     1     -22.704   5.440 -13.084  1.00  0.00    -0.085 Cl
HETATM   11  C   UNL     1     -20.373   4.759 -11.695  1.00  0.00     0.059 C 
HETATM   12 CL   UNL     1     -19.807   3.566 -12.799  1.00  0.00    -0.085 Cl
HETATM   13  C   UNL     1     -19.729   5.223 -10.504  1.00  0.00     0.126 C 
HETATM   14 CL   UNL     1     -18.565   4.125  -9.715  1.00  0.00    -0.108 Cl
HETATM   15  C   UNL     1     -19.244   6.708 -10.728  1.00  0.00     0.126 A 
HETATM   16  C   UNL     1     -18.595   6.936 -11.929  1.00  0.00     0.234 A 
HETATM   17  O   UNL     1     -17.492   6.460 -12.183  1.00  0.00    -0.272 OA
HETATM   18  N   UNL     1     -19.277   7.787 -12.740  1.00  0.00    -0.288 N 
ENDROOT
BRANCH  18  19
HETATM   19  C   UNL     1     -18.715   8.150 -14.055  1.00  0.00     0.135 C 
BRANCH  19  20
HETATM   20  C   UNL     1     -17.404   8.932 -13.938  1.00  0.00     0.020 C 
BRANCH  20  21
HETATM   21  C   UNL     1     -17.497   9.952 -12.829  1.00  0.00     0.002 C 
BRANCH  21  22
HETATM   22  C   UNL     1     -16.352   9.752 -11.853  1.00  0.00     0.010 C 
BRANCH  22  23
HETATM   23  C   UNL     1     -16.542  10.677 -10.652  1.00  0.00     0.113 C 
BRANCH  23  24
HETATM   24  C   UNL     1     -17.503  10.022  -9.674  1.00  0.00     0.172 C 
HETATM   25  O   UNL     1     -18.710  10.220  -9.878  1.00  0.00    -0.648 OA
HETATM   26  O   UNL     1     -17.008   9.334  -8.751  1.00  0.00    -0.648 OA
ENDBRANCH  23  24
ENDBRANCH  22  23
ENDBRANCH  21  22
ENDBRANCH  20  21
ENDBRANCH  19  20
ENDBRANCH  18  19
TORSDOF 6
ENDMDL
MODEL 18
REMARK VINA RESULT:    -8.019      3.781      5.836
REMARK INTER + INTRA:         -11.536
REMARK INTER:                 -10.166
REMARK INTRA:                  -1.371
REMARK UNBOUND:                -0.704
REMARK  6 active torsions:
REMARK  status: ('A' for Active; 'I' for Inactive)
REMARK    1  A    between atoms: N_18  and  C_19 
REMARK    2  A    between atoms: C_19  and  C_20 
REMARK    3  A    between atoms: C_20  and  C_21 
REMARK    4  A    between atoms: C_21  and  C_22 
REMARK    5  A    between atoms: C_22  and  C_23 
REMARK    6  A    between atoms: C_23  and  C_24 
ROOT
HETATM    1  O   UNL     1     -18.260   5.429 -12.108  1.00  0.00    -0.272 OA
HETATM    2  C   UNL     1     -19.097   6.269 -11.742  1.00  0.00     0.234 A 
HETATM    3  C   UNL     1     -18.693   7.505 -11.210  1.00  0.00     0.126 A 
HETATM    4  C   UNL     1     -18.083   8.523 -12.235  1.00  0.00     0.126 C 
HETATM    5  C   UNL     1     -18.446   9.861 -11.587  1.00  0.00     0.167 C 
HETATM    6 CL   UNL     1     -17.684  10.205  -9.879  1.00  0.00    -0.097 Cl
HETATM    7 CL   UNL     1     -17.902  11.325 -12.583  1.00  0.00    -0.097 Cl
HETATM    8 CL   UNL     1     -16.312   8.292 -12.540  1.00  0.00    -0.108 Cl
HETATM    9  C   UNL     1     -18.887   8.586 -13.384  1.00  0.00     0.059 C 
HETATM   10 CL   UNL     1     -18.391   7.882 -14.914  1.00  0.00    -0.085 Cl
HETATM   11  C   UNL     1     -20.015   9.224 -13.074  1.00  0.00     0.059 C 
HETATM   12 CL   UNL     1     -21.332   9.537 -14.138  1.00  0.00    -0.085 Cl
HETATM   13  C   UNL     1     -19.924   9.540 -11.682  1.00  0.00     0.126 C 
HETATM   14 CL   UNL     1     -20.932  10.879 -11.072  1.00  0.00    -0.108 Cl
HETATM   15  C   UNL     1     -19.967   8.201 -10.847  1.00  0.00     0.126 A 
HETATM   16  C   UNL     1     -20.950   7.305 -11.230  1.00  0.00     0.234 A 
HETATM   17  O   UNL     1     -22.146   7.530 -11.069  1.00  0.00    -0.272 OA
HETATM   18  N   UNL     1     -20.439   6.147 -11.726  1.00  0.00    -0.288 N 
ENDROOT
BRANCH  18  19
HETATM   19  C   UNL     1     -21.353   5.076 -12.166  1.00  0.00     0.135 C 
BRANCH  19  20
HETATM   20  C   UNL     1     -21.425   3.917 -11.169  1.00  0.00     0.020 C 
BRANCH  20  21
HETATM   21  C   UNL     1     -22.608   4.089 -10.248  1.00  0.00     0.002 C 
BRANCH  21  22
HETATM   22  C   UNL     1     -22.127   4.496  -8.867  1.00  0.00     0.010 C 
BRANCH  22  23
HETATM   23  C   UNL     1     -20.640   4.174  -8.733  1.00  0.00     0.113 C 
BRANCH  23  24
HETATM   24  C   UNL     1     -19.918   5.396  -8.193  1.00  0.00     0.172 C 
HETATM   25  O   UNL     1     -18.691   5.431  -8.373  1.00  0.00    -0.648 OA
HETATM   26  O   UNL     1     -20.610   6.271  -7.621  1.00  0.00    -0.648 OA
ENDBRANCH  23  24
ENDBRANCH  22  23
ENDBRANCH  21  22
ENDBRANCH  20  21
ENDBRANCH  19  20
ENDBRANCH  18  19
TORSDOF 6
ENDMDL
MODEL 19
REMARK VINA RESULT:    -7.917      4.130      5.116
REMARK INTER + INTRA:         -11.398
REMARK INTER:                 -10.540
REMARK INTRA:                  -0.858
REMARK UNBOUND:                -0.704
REMARK  6 active torsions:
REMARK  status: ('A' for Active; 'I' for Inactive)
REMARK    1  A    between atoms: N_18  and  C_19 
REMARK    2  A    between atoms: C_19  and  C_20 
REMARK    3  A    between atoms: C_20  and  C_21 
REMARK    4  A    between atoms: C_21  and  C_22 
REMARK    5  A    between atoms: C_22  and  C_23 
REMARK    6  A    between atoms: C_23  and  C_24 
ROOT
HETATM    1  O   UNL     1     -21.662   6.745 -13.631  1.00  0.00    -0.272 OA
HETATM    2  C   UNL     1     -21.776   7.260 -12.509  1.00  0.00     0.234 A 
HETATM    3  C   UNL     1     -22.287   6.525 -11.425  1.00  0.00     0.126 A 
HETATM    4  C   UNL     1     -21.341   5.416 -10.848  1.00  0.00     0.126 C 
HETATM    5  C   UNL     1     -21.793   5.363  -9.387  1.00  0.00     0.167 C 
HETATM    6 CL   UNL     1     -23.594   4.833  -9.080  1.00  0.00    -0.097 Cl
HETATM    7 CL   UNL     1     -20.828   4.153  -8.368  1.00  0.00    -0.097 Cl
HETATM    8 CL   UNL     1     -21.440   3.832 -11.723  1.00  0.00    -0.108 Cl
HETATM    9  C   UNL     1     -20.046   5.929 -10.680  1.00  0.00     0.059 C 
HETATM   10 CL   UNL     1     -18.714   5.475 -11.731  1.00  0.00    -0.085 Cl
HETATM   11  C   UNL     1     -20.058   6.776  -9.651  1.00  0.00     0.059 C 
HETATM   12 CL   UNL     1     -18.717   7.680  -9.062  1.00  0.00    -0.085 Cl
HETATM   13  C   UNL     1     -21.410   6.814  -9.184  1.00  0.00     0.126 C 
HETATM   14 CL   UNL     1     -21.687   7.344  -7.503  1.00  0.00    -0.108 Cl
HETATM   15  C   UNL     1     -22.315   7.493 -10.285  1.00  0.00     0.126 A 
HETATM   16  C   UNL     1     -21.800   8.656 -10.830  1.00  0.00     0.234 A 
HETATM   17  O   UNL     1     -21.684   9.692 -10.181  1.00  0.00    -0.272 OA
HETATM   18  N   UNL     1     -21.514   8.533 -12.153  1.00  0.00    -0.288 N 
ENDROOT
BRANCH  18  19
HETATM   19  C   UNL     1     -20.971   9.689 -12.892  1.00  0.00     0.135 C 
BRANCH  19  20
HETATM   20  C   UNL     1     -19.638   9.376 -13.576  1.00  0.00     0.020 C 
BRANCH  20  21
HETATM   21  C   UNL     1     -18.586  10.376 -13.163  1.00  0.00     0.002 C 
BRANCH  21  22
HETATM   22  C   UNL     1     -18.414  10.344 -11.655  1.00  0.00     0.010 C 
BRANCH  22  23
HETATM   23  C   UNL     1     -17.025   9.808 -11.314  1.00  0.00     0.113 C 
BRANCH  23  24
HETATM   24  C   UNL     1     -16.428  10.658 -10.206  1.00  0.00     0.172 C 
HETATM   25  O   UNL     1     -15.678  11.578 -10.564  1.00  0.00    -0.648 OA
HETATM   26  O   UNL     1     -16.742  10.372  -9.026  1.00  0.00    -0.648 OA
ENDBRANCH  23  24
ENDBRANCH  22  23
ENDBRANCH  21  22
ENDBRANCH  20  21
ENDBRANCH  19  20
ENDBRANCH  18  19
TORSDOF 6
ENDMDL
MODEL 20
REMARK VINA RESULT:    -7.819      4.215      6.181
REMARK INTER + INTRA:         -11.265
REMARK INTER:                 -10.081
REMARK INTRA:                  -1.184
REMARK UNBOUND:                -0.704
REMARK  6 active torsions:
REMARK  status: ('A' for Active; 'I' for Inactive)
REMARK    1  A    between atoms: N_18  and  C_19 
REMARK    2  A    between atoms: C_19  and  C_20 
REMARK    3  A    between atoms: C_20  and  C_21 
REMARK    4  A    between atoms: C_21  and  C_22 
REMARK    5  A    between atoms: C_22  and  C_23 
REMARK    6  A    between atoms: C_23  and  C_24 
ROOT
HETATM    1  O   UNL     1     -18.692   7.132  -9.655  1.00  0.00    -0.272 OA
HETATM    2  C   UNL     1     -19.429   7.335 -10.632  1.00  0.00     0.234 A 
HETATM    3  C   UNL     1     -19.958   8.612 -10.885  1.00  0.00     0.126 A 
HETATM    4  C   UNL     1     -18.936   9.683 -11.402  1.00  0.00     0.126 C 
HETATM    5  C   UNL     1     -19.844  10.593 -12.232  1.00  0.00     0.167 C 
HETATM    6 CL   UNL     1     -21.227  11.494 -11.285  1.00  0.00    -0.097 Cl
HETATM    7 CL   UNL     1     -18.933  11.982 -13.051  1.00  0.00    -0.097 Cl
HETATM    8 CL   UNL     1     -18.024  10.530 -10.085  1.00  0.00    -0.108 Cl
HETATM    9  C   UNL     1     -18.145   9.136 -12.424  1.00  0.00     0.059 C 
HETATM   10 CL   UNL     1     -16.456   8.721 -12.182  1.00  0.00    -0.085 Cl
HETATM   11  C   UNL     1     -18.900   8.998 -13.513  1.00  0.00     0.059 C 
HETATM   12 CL   UNL     1     -18.395   8.351 -15.026  1.00  0.00    -0.085 Cl
HETATM   13  C   UNL     1     -20.210   9.443 -13.148  1.00  0.00     0.126 C 
HETATM   14 CL   UNL     1     -21.300   9.964 -14.461  1.00  0.00    -0.108 Cl
HETATM   15  C   UNL     1     -20.819   8.437 -12.095  1.00  0.00     0.126 A 
HETATM   16  C   UNL     1     -20.671   7.098 -12.412  1.00  0.00     0.234 A 
HETATM   17  O   UNL     1     -21.254   6.576 -13.358  1.00  0.00    -0.272 OA
HETATM   18  N   UNL     1     -19.879   6.435 -11.529  1.00  0.00    -0.288 N 
ENDROOT
BRANCH  18  19
HETATM   19  C   UNL     1     -19.630   4.992 -11.713  1.00  0.00     0.135 C 
BRANCH  19  20
HETATM   20  C   UNL     1     -20.641   4.122 -10.963  1.00  0.00     0.020 C 
BRANCH  20  21
HETATM   21  C   UNL     1     -20.366   4.155  -9.479  1.00  0.00     0.002 C 
BRANCH  21  22
HETATM   22  C   UNL     1     -21.668   4.342  -8.721  1.00  0.00     0.010 C 
BRANCH  22  23
HETATM   23  C   UNL     1     -22.737   4.873  -9.675  1.00  0.00     0.113 C 
BRANCH  23  24
HETATM   24  C   UNL     1     -22.870   6.373  -9.480  1.00  0.00     0.172 C 
HETATM   25  O   UNL     1     -23.584   6.971 -10.300  1.00  0.00    -0.648 OA
HETATM   26  O   UNL     1     -22.262   6.886  -8.512  1.00  0.00    -0.648 OA
ENDBRANCH  23  24
ENDBRANCH  22  23
ENDBRANCH  21  22
ENDBRANCH  20  21
ENDBRANCH  19  20
ENDBRANCH  18  19
TORSDOF 6
ENDMDL
