MODEL 1
REMARK VINA RESULT:   -11.996      0.000      0.000
REMARK INTER + INTRA:         -19.665
REMARK INTER:                 -17.958
REMARK INTRA:                  -1.708
REMARK UNBOUND:                -1.708
REMARK  9 active torsions:
REMARK  status: ('A' for Active; 'I' for Inactive)
REMARK    1  A    between atoms: C_2  and  N_17 
REMARK    2  A    between atoms: C_4  and  C_22 
REMARK    3  A    between atoms: C_5  and  N_19 
REMARK    4  A    between atoms: O_6  and  C_7 
REMARK    5  A    between atoms: O_6  and  C_27 
REMARK    6  A    between atoms: C_7  and  C_9 
REMARK    7  A    between atoms: C_22  and  O_23 
REMARK    8  A    between atoms: C_31  and  C_33 
REMARK       I    between atoms: C_33  and  N_35 
REMARK    9  A    between atoms: N_35  and  C_37 
ROOT
HETATM    1  C   UNL     1      28.972 -22.226  22.605  1.00  0.00     0.173 A 
HETATM    2  C   UNL     1      26.947 -21.714  21.424  1.00  0.00     0.068 A 
HETATM    3  C   UNL     1      28.309 -21.579  21.553  1.00  0.00     0.163 A 
HETATM    4  N   UNL     1      28.268 -22.930  23.480  1.00  0.00    -0.318 N 
ATOM      5  HN  UNL     1      28.768 -23.386  24.244  1.00  0.00     0.169 HD
HETATM    6  C   UNL     1      26.944 -23.075  23.418  1.00  0.00     0.160 A 
HETATM    7  C   UNL     1      26.205 -22.453  22.367  1.00  0.00     0.086 A 
HETATM    8  F   UNL     1      28.946 -20.839  20.638  1.00  0.00    -0.202 F 
ENDROOT
BRANCH   7   9
HETATM    9  C   UNL     1      24.739 -22.597  22.178  1.00  0.00     0.260 C 
HETATM   10  O   UNL     1      24.134 -21.732  21.566  1.00  0.00    -0.267 OA
HETATM   11  N   UNL     1      24.099 -23.735  22.590  1.00  0.00    -0.320 N 
ATOM     12  HN  UNL     1      24.659 -24.446  23.060  1.00  0.00     0.169 HD
BRANCH  11  13
HETATM   13  C   UNL     1      22.734 -23.999  22.417  1.00  0.00     0.080 A 
HETATM   14  C   UNL     1      21.828 -23.758  23.462  1.00  0.00     0.131 A 
HETATM   15 CL   UNL     1      22.400 -23.081  24.931  1.00  0.00    -0.062 Cl
HETATM   16  N   UNL     1      20.534 -24.031  23.348  1.00  0.00    -0.355 N 
HETATM   17  C   UNL     1      20.045 -24.549  22.230  1.00  0.00     0.090 A 
ATOM     18  HN  UNL     1      19.908 -23.840  24.130  1.00  0.00     0.166 HD
HETATM   19  C   UNL     1      20.878 -24.832  21.154  1.00  0.00     0.026 A 
HETATM   20  C   UNL     1      22.240 -24.571  21.225  1.00  0.00    -0.031 A 
HETATM   21  C   UNL     1      23.113 -24.914  20.037  1.00  0.00     0.050 C 
ENDBRANCH  11  13
ENDBRANCH   7   9
BRANCH   6  22
HETATM   22  O   UNL     1      26.278 -23.818  24.350  1.00  0.00    -0.321 OA
BRANCH  22  23
HETATM   23  C   UNL     1      26.968 -24.640  25.289  1.00  0.00     0.234 C 
HETATM   24  C   UNL     1      26.947 -23.987  26.672  1.00  0.00     0.049 C 
BRANCH  23  25
HETATM   25  C   UNL     1      26.252 -25.986  25.261  1.00  0.00     0.413 C 
HETATM   26  F   UNL     1      25.148 -25.922  26.103  1.00  0.00    -0.168 F 
HETATM   27  F   UNL     1      25.828 -26.220  23.975  1.00  0.00    -0.168 F 
HETATM   28  F   UNL     1      27.097 -26.990  25.692  1.00  0.00    -0.168 F 
ENDBRANCH  23  25
ENDBRANCH  22  23
ENDBRANCH   6  22
BRANCH   1  29
HETATM   29  N   UNL     1      30.340 -22.167  22.791  1.00  0.00    -0.184 N 
HETATM   30  N   UNL     1      30.917 -21.885  24.024  1.00  0.00    -0.274 N 
HETATM   31  C   UNL     1      32.184 -21.907  23.884  1.00  0.00     0.126 A 
ATOM     32  HN  UNL     1      30.415 -21.693  24.891  1.00  0.00     0.189 HD
HETATM   33  N   UNL     1      32.493 -22.192  22.570  1.00  0.00    -0.285 N 
HETATM   34  C   UNL     1      31.336 -22.371  21.897  1.00  0.00     0.351 A 
HETATM   35  O   UNL     1      31.218 -22.648  20.701  1.00  0.00    -0.244 OA
BRANCH  31  36
HETATM   36  C   UNL     1      33.106 -21.657  25.046  1.00  0.00     0.242 C 
BRANCH  36  37
HETATM   37  O   UNL     1      32.715 -22.329  26.233  1.00  0.00    -0.393 OA
ATOM     38  HO  UNL     1      31.826 -22.660  26.207  1.00  0.00     0.209 HD
ENDBRANCH  36  37
ENDBRANCH  31  36
BRANCH  33  39
HETATM   39  C   UNL     1      33.835 -22.298  22.011  1.00  0.00     0.131 C 
HETATM   40  C   UNL     1      34.389 -20.915  21.691  1.00  0.00     0.027 C 
ENDBRANCH  33  39
ENDBRANCH   1  29
TORSDOF 9
ENDMDL
MODEL 2
REMARK VINA RESULT:   -11.990      1.043      1.499
REMARK INTER + INTRA:         -19.655
REMARK INTER:                 -17.955
REMARK INTRA:                  -1.700
REMARK UNBOUND:                -1.708
REMARK  9 active torsions:
REMARK  status: ('A' for Active; 'I' for Inactive)
REMARK    1  A    between atoms: C_2  and  N_17 
REMARK    2  A    between atoms: C_4  and  C_22 
REMARK    3  A    between atoms: C_5  and  N_19 
REMARK    4  A    between atoms: O_6  and  C_7 
REMARK    5  A    between atoms: O_6  and  C_27 
REMARK    6  A    between atoms: C_7  and  C_9 
REMARK    7  A    between atoms: C_22  and  O_23 
REMARK    8  A    between atoms: C_31  and  C_33 
REMARK       I    between atoms: C_33  and  N_35 
REMARK    9  A    between atoms: N_35  and  C_37 
ROOT
HETATM    1  C   UNL     1      28.933 -22.255  22.646  1.00  0.00     0.173 A 
HETATM    2  C   UNL     1      26.883 -21.735  21.512  1.00  0.00     0.068 A 
HETATM    3  C   UNL     1      28.247 -21.595  21.617  1.00  0.00     0.163 A 
HETATM    4  N   UNL     1      28.250 -22.977  23.523  1.00  0.00    -0.318 N 
ATOM      5  HN  UNL     1      28.766 -23.442  24.269  1.00  0.00     0.169 HD
HETATM    6  C   UNL     1      26.926 -23.129  23.483  1.00  0.00     0.160 A 
HETATM    7  C   UNL     1      26.163 -22.493  22.457  1.00  0.00     0.086 A 
HETATM    8  F   UNL     1      28.861 -20.837  20.702  1.00  0.00    -0.202 F 
ENDROOT
BRANCH   7   9
HETATM    9  C   UNL     1      24.694 -22.642  22.294  1.00  0.00     0.260 C 
HETATM   10  O   UNL     1      24.073 -21.772  21.707  1.00  0.00    -0.267 OA
HETATM   11  N   UNL     1      24.068 -23.790  22.700  1.00  0.00    -0.320 N 
ATOM     12  HN  UNL     1      24.641 -24.506  23.148  1.00  0.00     0.169 HD
BRANCH  11  13
HETATM   13  C   UNL     1      22.702 -24.059  22.549  1.00  0.00     0.080 A 
HETATM   14  C   UNL     1      22.214 -24.596  21.348  1.00  0.00     0.131 A 
HETATM   15 CL   UNL     1      23.316 -24.975  20.088  1.00  0.00    -0.062 Cl
HETATM   16  N   UNL     1      20.921 -24.828  21.154  1.00  0.00    -0.355 N 
HETATM   17  C   UNL     1      20.034 -24.557  22.100  1.00  0.00     0.090 A 
ATOM     18  HN  UNL     1      20.608 -25.220  20.266  1.00  0.00     0.166 HD
HETATM   19  C   UNL     1      20.432 -24.010  23.314  1.00  0.00     0.026 A 
HETATM   20  C   UNL     1      21.772 -23.742  23.564  1.00  0.00    -0.031 A 
HETATM   21  C   UNL     1      22.160 -23.126  24.891  1.00  0.00     0.050 C 
ENDBRANCH  11  13
ENDBRANCH   7   9
BRANCH   6  22
HETATM   22  O   UNL     1      26.281 -23.889  24.416  1.00  0.00    -0.321 OA
BRANCH  22  23
HETATM   23  C   UNL     1      26.993 -24.726  25.326  1.00  0.00     0.234 C 
HETATM   24  C   UNL     1      27.036 -24.078  26.711  1.00  0.00     0.049 C 
BRANCH  23  25
HETATM   25  C   UNL     1      26.254 -26.060  25.322  1.00  0.00     0.413 C 
HETATM   26  F   UNL     1      25.197 -25.988  26.220  1.00  0.00    -0.168 F 
HETATM   27  F   UNL     1      25.761 -26.273  24.057  1.00  0.00    -0.168 F 
HETATM   28  F   UNL     1      27.105 -27.082  25.698  1.00  0.00    -0.168 F 
ENDBRANCH  23  25
ENDBRANCH  22  23
ENDBRANCH   6  22
BRANCH   1  29
HETATM   29  N   UNL     1      30.304 -22.191  22.806  1.00  0.00    -0.184 N 
HETATM   30  N   UNL     1      30.903 -21.903  24.028  1.00  0.00    -0.274 N 
HETATM   31  C   UNL     1      32.167 -21.922  23.864  1.00  0.00     0.126 A 
ATOM     32  HN  UNL     1      30.416 -21.710  24.903  1.00  0.00     0.189 HD
HETATM   33  N   UNL     1      32.452 -22.211  22.546  1.00  0.00    -0.285 N 
HETATM   34  C   UNL     1      31.284 -22.396  21.895  1.00  0.00     0.351 A 
HETATM   35  O   UNL     1      31.144 -22.677  20.702  1.00  0.00    -0.244 OA
BRANCH  31  36
HETATM   36  C   UNL     1      33.109 -21.666  25.009  1.00  0.00     0.242 C 
BRANCH  36  37
HETATM   37  O   UNL     1      32.714 -22.293  26.219  1.00  0.00    -0.393 OA
ATOM     38  HO  UNL     1      32.064 -21.802  26.707  1.00  0.00     0.209 HD
ENDBRANCH  36  37
ENDBRANCH  31  36
BRANCH  33  39
HETATM   39  C   UNL     1      33.784 -22.315  21.963  1.00  0.00     0.131 C 
HETATM   40  C   UNL     1      34.349 -20.929  21.675  1.00  0.00     0.027 C 
ENDBRANCH  33  39
ENDBRANCH   1  29
TORSDOF 9
ENDMDL
MODEL 3
REMARK VINA RESULT:   -10.773      0.994      1.779
REMARK INTER + INTRA:         -17.833
REMARK INTER:                 -15.882
REMARK INTRA:                  -1.951
REMARK UNBOUND:                -1.708
REMARK  9 active torsions:
REMARK  status: ('A' for Active; 'I' for Inactive)
REMARK    1  A    between atoms: C_2  and  N_17 
REMARK    2  A    between atoms: C_4  and  C_22 
REMARK    3  A    between atoms: C_5  and  N_19 
REMARK    4  A    between atoms: O_6  and  C_7 
REMARK    5  A    between atoms: O_6  and  C_27 
REMARK    6  A    between atoms: C_7  and  C_9 
REMARK    7  A    between atoms: C_22  and  O_23 
REMARK    8  A    between atoms: C_31  and  C_33 
REMARK       I    between atoms: C_33  and  N_35 
REMARK    9  A    between atoms: N_35  and  C_37 
ROOT
HETATM    1  C   UNL     1      29.367 -22.212  22.524  1.00  0.00     0.173 A 
HETATM    2  C   UNL     1      27.348 -21.840  21.281  1.00  0.00     0.068 A 
HETATM    3  C   UNL     1      28.715 -21.722  21.385  1.00  0.00     0.163 A 
HETATM    4  N   UNL     1      28.651 -22.752  23.500  1.00  0.00    -0.318 N 
ATOM      5  HN  UNL     1      29.143 -23.096  24.324  1.00  0.00     0.169 HD
HETATM    6  C   UNL     1      27.324 -22.873  23.463  1.00  0.00     0.160 A 
HETATM    7  C   UNL     1      26.594 -22.404  22.329  1.00  0.00     0.086 A 
HETATM    8  F   UNL     1      29.364 -21.150  20.364  1.00  0.00    -0.202 F 
ENDROOT
BRANCH   7   9
HETATM    9  C   UNL     1      25.124 -22.539  22.168  1.00  0.00     0.260 C 
HETATM   10  O   UNL     1      24.492 -21.605  21.700  1.00  0.00    -0.267 OA
HETATM   11  N   UNL     1      24.507 -23.731  22.437  1.00  0.00    -0.320 N 
ATOM     12  HN  UNL     1      25.087 -24.493  22.786  1.00  0.00     0.169 HD
BRANCH  11  13
HETATM   13  C   UNL     1      23.139 -23.985  22.272  1.00  0.00     0.080 A 
HETATM   14  C   UNL     1      22.266 -23.907  23.368  1.00  0.00     0.131 A 
HETATM   15 CL   UNL     1      22.881 -23.439  24.900  1.00  0.00    -0.062 Cl
HETATM   16  N   UNL     1      20.971 -24.179  23.257  1.00  0.00    -0.355 N 
HETATM   17  C   UNL     1      20.450 -24.539  22.092  1.00  0.00     0.090 A 
ATOM     18  HN  UNL     1      20.370 -24.109  24.078  1.00  0.00     0.166 HD
HETATM   19  C   UNL     1      21.249 -24.655  20.962  1.00  0.00     0.026 A 
HETATM   20  C   UNL     1      22.611 -24.388  21.026  1.00  0.00    -0.031 A 
HETATM   21  C   UNL     1      23.447 -24.548  19.774  1.00  0.00     0.050 C 
ENDBRANCH  11  13
ENDBRANCH   7   9
BRANCH   6  22
HETATM   22  O   UNL     1      26.644 -23.443  24.501  1.00  0.00    -0.321 OA
BRANCH  22  23
HETATM   23  C   UNL     1      27.245 -24.426  25.343  1.00  0.00     0.234 C 
HETATM   24  C   UNL     1      27.286 -23.923  26.787  1.00  0.00     0.049 C 
BRANCH  23  25
HETATM   25  C   UNL     1      26.395 -25.681  25.179  1.00  0.00     0.413 C 
HETATM   26  F   UNL     1      27.108 -26.770  25.668  1.00  0.00    -0.168 F 
HETATM   27  F   UNL     1      25.248 -25.521  25.918  1.00  0.00    -0.168 F 
HETATM   28  F   UNL     1      26.098 -25.891  23.847  1.00  0.00    -0.168 F 
ENDBRANCH  23  25
ENDBRANCH  22  23
ENDBRANCH   6  22
BRANCH   1  29
HETATM   29  N   UNL     1      30.737 -22.159  22.696  1.00  0.00    -0.184 N 
HETATM   30  N   UNL     1      31.629 -22.227  21.632  1.00  0.00    -0.274 N 
HETATM   31  C   UNL     1      32.812 -22.147  22.100  1.00  0.00     0.126 A 
ATOM     32  HN  UNL     1      31.381 -22.324  20.648  1.00  0.00     0.189 HD
HETATM   33  N   UNL     1      32.753 -22.033  23.473  1.00  0.00    -0.285 N 
HETATM   34  C   UNL     1      31.453 -22.022  23.838  1.00  0.00     0.351 A 
HETATM   35  O   UNL     1      31.012 -21.927  24.986  1.00  0.00    -0.244 OA
BRANCH  31  36
HETATM   36  C   UNL     1      34.015 -22.170  21.198  1.00  0.00     0.242 C 
BRANCH  36  37
HETATM   37  O   UNL     1      35.014 -23.091  21.609  1.00  0.00    -0.393 OA
ATOM     38  HO  UNL     1      35.726 -22.688  22.092  1.00  0.00     0.209 HD
ENDBRANCH  36  37
ENDBRANCH  31  36
BRANCH  33  39
HETATM   39  C   UNL     1      33.896 -21.924  24.373  1.00  0.00     0.131 C 
HETATM   40  C   UNL     1      34.270 -20.462  24.584  1.00  0.00     0.027 C 
ENDBRANCH  33  39
ENDBRANCH   1  29
TORSDOF 9
ENDMDL
