REMARK  12 active torsions:
REMARK  status: ('A' for Active; 'I' for Inactive)
REMARK    1  A    between atoms: P_1  and  O_3 
REMARK    2  A    between atoms: P_1  and  O_4 
REMARK    3  A    between atoms: P_1  and  O_8 
REMARK    4  A    between atoms: P_5  and  O_7 
REMARK    5  A    between atoms: P_5  and  O_8 
REMARK    6  A    between atoms: P_5  and  O_9 
REMARK    7  A    between atoms: O_9  and  C_10 
REMARK    8  A    between atoms: C_10  and  C_11 
REMARK    9  A    between atoms: C_13  and  O_14 
REMARK   10  A    between atoms: C_15  and  O_16 
REMARK   11  A    between atoms: C_17  and  N_18 
REMARK   12  A    between atoms: C_23  and  N_24 
ROOT
HETATM    1  C   UNL     1      -1.085  -2.660  -0.231  1.00  0.00     0.180 C 
HETATM    2  O   UNL     1      -1.812  -1.602  -0.824  1.00  0.00    -0.353 OA
HETATM    3  C   UNL     1       0.272  -2.795  -0.935  1.00  0.00     0.182 C 
HETATM    4  C   UNL     1       0.455  -1.436  -1.569  1.00  0.00     0.198 C 
HETATM    5  C   UNL     1      -0.979  -0.968  -1.772  1.00  0.00     0.262 C 
ENDROOT
BRANCH   5   6
HETATM    6  N   UNL     1      -1.072   0.486  -1.631  1.00  0.00    -0.297 N 
HETATM    7  C   UNL     1      -1.200   1.210  -0.487  1.00  0.00     0.188 A 
HETATM    8  N   UNL     1      -1.150   2.555  -0.692  1.00  0.00    -0.346 N 
HETATM    9  C   UNL     1      -0.973   2.647  -2.024  1.00  0.00     0.122 A 
ATOM     10  HN  UNL     1      -1.227   3.307  -0.007  1.00  0.00     0.167 HD
HETATM   11  C   UNL     1      -0.823   3.776  -2.821  1.00  0.00     0.131 A 
HETATM   12  C   UNL     1      -0.918   1.415  -2.581  1.00  0.00     0.142 A 
HETATM   13  N   UNL     1      -0.622   3.583  -4.159  1.00  0.00    -0.337 N 
HETATM   14  C   UNL     1      -0.566   2.323  -4.700  1.00  0.00     0.183 A 
ATOM     15  HN  UNL     1      -0.511   4.393  -4.769  1.00  0.00     0.168 HD
HETATM   16  N   UNL     1      -0.712   1.220  -3.906  1.00  0.00    -0.336 N 
ATOM     17  HN  UNL     1      -0.667   0.280  -4.299  1.00  0.00     0.168 HD
BRANCH  11  18
HETATM   18  N   UNL     1      -0.872   5.094  -2.275  1.00  0.00    -0.383 N 
HETATM   19  H   UNL     1      -0.753   5.924  -2.898  1.00  0.00     0.157 HD
HETATM   20  H   UNL     1      -1.022   5.248  -1.254  1.00  0.00     0.157 HD
ENDBRANCH  11  18
ENDBRANCH   5   6
BRANCH   4  21
HETATM   21  O   UNL     1       1.144  -1.501  -2.791  1.00  0.00    -0.388 OA
HETATM   22  H   UNL     1       2.097  -1.663  -2.567  1.00  0.00     0.210 HD
ENDBRANCH   4  21
BRANCH   1  23
HETATM   23  C   UNL     1      -0.929  -2.374   1.268  1.00  0.00     0.215 C 
BRANCH  23  24
HETATM   24  O   UNL     1      -0.350  -3.491   1.902  1.00  0.00    -0.294 OA
BRANCH  24  25
HETATM   25  P   UNL     1      -0.125  -3.111   3.548  1.00  0.00     0.401 P 
HETATM   26  O   UNL     1       0.480  -4.315   4.236  1.00  0.00    -0.631 OA
BRANCH  25  27
HETATM   27  O   UNL     1      -1.627  -2.761   4.254  1.00  0.00    -0.307 OA
HETATM   28  H   UNL     1      -2.181  -3.562   4.078  1.00  0.00     0.222 HD
ENDBRANCH  25  27
BRANCH  25  29
HETATM   29  O   UNL     1       0.942  -1.788   3.673  1.00  0.00    -0.195 OA
BRANCH  29  30
HETATM   30  P   UNL     1       0.881  -1.219   5.276  1.00  0.00     0.399 P 
HETATM   31  O   UNL     1      -0.439  -0.528   5.529  1.00  0.00    -0.631 OA
BRANCH  30  32
HETATM   32  O   UNL     1       2.128  -0.098   5.500  1.00  0.00    -0.307 OA
HETATM   33  H   UNL     1       2.950  -0.576   5.221  1.00  0.00     0.222 HD
ENDBRANCH  30  32
BRANCH  30  34
HETATM   34  O   UNL     1       1.079  -2.485   6.384  1.00  0.00    -0.307 OA
HETATM   35  H   UNL     1       1.990  -2.831   6.213  1.00  0.00     0.222 HD
ENDBRANCH  30  34
ENDBRANCH  29  30
ENDBRANCH  25  29
ENDBRANCH  24  25
ENDBRANCH  23  24
ENDBRANCH   1  23
BRANCH   3  36
HETATM   36  O   UNL     1       0.249  -3.829  -1.894  1.00  0.00    -0.390 OA
HETATM   37  H   UNL     1      -0.503  -3.657  -2.519  1.00  0.00     0.210 HD
ENDBRANCH   3  36
TORSDOF 12
