MODEL 1
REMARK VINA RESULT:    -7.145      0.000      0.000
REMARK INTER + INTRA:         -10.269
REMARK INTER:                  -9.860
REMARK INTRA:                  -0.409
REMARK UNBOUND:                -0.409
REMARK  9 active torsions:
REMARK  status: ('A' for Active; 'I' for Inactive)
REMARK    1  A    between atoms: C_1  and  C_16 
REMARK    2  A    between atoms: C_3  and  O_13 
REMARK    3  A    between atoms: C_4  and  O_9 
REMARK    4  A    between atoms: C_5  and  C_6 
REMARK    5  A    between atoms: C_6  and  O_17 
REMARK    6  A    between atoms: C_6  and  C_7 
REMARK    7  A    between atoms: C_7  and  O_19 
REMARK    8  A    between atoms: C_7  and  C_8 
REMARK    9  A    between atoms: C_8  and  O_21 
ROOT
HETATM    1  C   UNL     1     -19.313 -40.701  29.369  1.00  0.00     0.051 C 
HETATM    2  C   UNL     1     -18.810 -39.379  29.521  1.00  0.00     0.175 C 
HETATM    3  C   UNL     1     -17.330 -39.361  29.909  1.00  0.00     0.182 C 
HETATM    4  C   UNL     1     -17.099 -40.275  31.114  1.00  0.00     0.192 C 
HETATM    5  O   UNL     1     -17.585 -41.602  30.811  1.00  0.00    -0.334 OA
HETATM    6  C   UNL     1     -18.708 -41.777  30.035  1.00  0.00     0.144 C 
ENDROOT
BRANCH   4   7
HETATM    7  C   UNL     1     -15.598 -40.399  31.445  1.00  0.00     0.181 C 
BRANCH   7   8
HETATM    8  O   UNL     1     -15.213 -41.766  31.219  1.00  0.00    -0.390 OA
ATOM      9  HO  UNL     1     -15.916 -42.319  31.541  1.00  0.00     0.210 HD
ENDBRANCH   7   8
BRANCH   7  10
HETATM   10  C   UNL     1     -15.359 -40.057  32.910  1.00  0.00     0.173 C 
BRANCH  10  11
HETATM   11  O   UNL     1     -15.067 -41.226  33.690  1.00  0.00    -0.391 OA
ATOM     12  HO  UNL     1     -14.963 -41.997  33.145  1.00  0.00     0.210 HD
ENDBRANCH  10  11
BRANCH  10  13
HETATM   13  C   UNL     1     -16.585 -39.356  33.510  1.00  0.00     0.198 C 
BRANCH  13  14
HETATM   14  O   UNL     1     -16.209 -38.734  34.744  1.00  0.00    -0.398 OA
ATOM     15  HO  UNL     1     -15.621 -38.012  34.560  1.00  0.00     0.209 HD
ENDBRANCH  13  14
ENDBRANCH  10  13
ENDBRANCH   7  10
ENDBRANCH   4   7
BRANCH   3  16
HETATM   16  O   UNL     1     -16.908 -38.017  30.235  1.00  0.00    -0.390 OA
ATOM     17  HO  UNL     1     -16.033 -37.868  29.895  1.00  0.00     0.210 HD
ENDBRANCH   3  16
BRANCH   6  18
HETATM   18  C   UNL     1     -19.180 -43.107  30.001  1.00  0.00     0.233 C 
HETATM   19  O   UNL     1     -20.396 -43.389  30.163  1.00  0.00    -0.642 OA
HETATM   20  O   UNL     1     -18.359 -44.045  29.839  1.00  0.00    -0.642 OA
ENDBRANCH   6  18
BRANCH   2  21
HETATM   21  O   UNL     1     -19.021 -38.565  28.353  1.00  0.00    -0.389 OA
ATOM     22  HO  UNL     1     -18.615 -37.715  28.472  1.00  0.00     0.210 HD
ENDBRANCH   2  21
TORSDOF 9
ENDMDL
MODEL 2
REMARK VINA RESULT:    -6.900      1.187      1.418
REMARK INTER + INTRA:          -9.931
REMARK INTER:                  -9.573
REMARK INTRA:                  -0.358
REMARK UNBOUND:                -0.409
REMARK  9 active torsions:
REMARK  status: ('A' for Active; 'I' for Inactive)
REMARK    1  A    between atoms: C_1  and  C_16 
REMARK    2  A    between atoms: C_3  and  O_13 
REMARK    3  A    between atoms: C_4  and  O_9 
REMARK    4  A    between atoms: C_5  and  C_6 
REMARK    5  A    between atoms: C_6  and  O_17 
REMARK    6  A    between atoms: C_6  and  C_7 
REMARK    7  A    between atoms: C_7  and  O_19 
REMARK    8  A    between atoms: C_7  and  C_8 
REMARK    9  A    between atoms: C_8  and  O_21 
ROOT
HETATM    1  C   UNL     1     -19.945 -39.637  28.967  1.00  0.00     0.051 C 
HETATM    2  C   UNL     1     -19.007 -38.581  29.145  1.00  0.00     0.175 C 
HETATM    3  C   UNL     1     -17.617 -39.095  29.525  1.00  0.00     0.182 C 
HETATM    4  C   UNL     1     -17.727 -40.058  30.709  1.00  0.00     0.192 C 
HETATM    5  O   UNL     1     -18.650 -41.120  30.380  1.00  0.00    -0.334 OA
HETATM    6  C   UNL     1     -19.761 -40.871  29.607  1.00  0.00     0.144 C 
ENDROOT
BRANCH   4   7
HETATM    7  C   UNL     1     -16.367 -40.712  31.029  1.00  0.00     0.181 C 
BRANCH   7   8
HETATM    8  O   UNL     1     -16.579 -42.131  31.130  1.00  0.00    -0.390 OA
ATOM      9  HO  UNL     1     -16.346 -42.394  32.013  1.00  0.00     0.210 HD
ENDBRANCH   7   8
BRANCH   7  10
HETATM   10  C   UNL     1     -15.845 -40.197  32.364  1.00  0.00     0.173 C 
BRANCH  10  11
HETATM   11  O   UNL     1     -15.377 -41.264  33.202  1.00  0.00    -0.391 OA
ATOM     12  HO  UNL     1     -16.038 -41.936  33.320  1.00  0.00     0.210 HD
ENDBRANCH  10  11
BRANCH  10  13
HETATM   13  C   UNL     1     -16.940 -39.425  33.113  1.00  0.00     0.198 C 
BRANCH  13  14
HETATM   14  O   UNL     1     -16.439 -39.032  34.396  1.00  0.00    -0.398 OA
ATOM     15  HO  UNL     1     -16.076 -39.794  34.833  1.00  0.00     0.209 HD
ENDBRANCH  13  14
ENDBRANCH  10  13
ENDBRANCH   7  10
ENDBRANCH   4   7
BRANCH   3  16
HETATM   16  O   UNL     1     -16.749 -37.995  29.876  1.00  0.00    -0.390 OA
ATOM     17  HO  UNL     1     -15.852 -38.305  29.938  1.00  0.00     0.210 HD
ENDBRANCH   3  16
BRANCH   6  18
HETATM   18  C   UNL     1     -20.672 -41.948  29.548  1.00  0.00     0.233 C 
HETATM   19  O   UNL     1     -20.514 -42.912  28.755  1.00  0.00    -0.642 OA
HETATM   20  O   UNL     1     -21.691 -41.930  30.282  1.00  0.00    -0.642 OA
ENDBRANCH   6  18
BRANCH   2  21
HETATM   21  O   UNL     1     -18.914 -37.720  27.994  1.00  0.00    -0.389 OA
ATOM     22  HO  UNL     1     -18.194 -37.997  27.440  1.00  0.00     0.210 HD
ENDBRANCH   2  21
TORSDOF 9
ENDMDL
MODEL 3
REMARK VINA RESULT:    -6.825      1.345      3.504
REMARK INTER + INTRA:          -9.827
REMARK INTER:                  -8.882
REMARK INTRA:                  -0.945
REMARK UNBOUND:                -0.409
REMARK  9 active torsions:
REMARK  status: ('A' for Active; 'I' for Inactive)
REMARK    1  A    between atoms: C_1  and  C_16 
REMARK    2  A    between atoms: C_3  and  O_13 
REMARK    3  A    between atoms: C_4  and  O_9 
REMARK    4  A    between atoms: C_5  and  C_6 
REMARK    5  A    between atoms: C_6  and  O_17 
REMARK    6  A    between atoms: C_6  and  C_7 
REMARK    7  A    between atoms: C_7  and  O_19 
REMARK    8  A    between atoms: C_7  and  C_8 
REMARK    9  A    between atoms: C_8  and  O_21 
ROOT
HETATM    1  C   UNL     1     -19.968 -40.813  29.436  1.00  0.00     0.051 C 
HETATM    2  C   UNL     1     -19.325 -42.033  29.789  1.00  0.00     0.175 C 
HETATM    3  C   UNL     1     -18.058 -41.804  30.617  1.00  0.00     0.182 C 
HETATM    4  C   UNL     1     -17.157 -40.786  29.914  1.00  0.00     0.192 C 
HETATM    5  O   UNL     1     -17.901 -39.570  29.675  1.00  0.00    -0.334 OA
HETATM    6  C   UNL     1     -19.240 -39.617  29.361  1.00  0.00     0.144 C 
ENDROOT
BRANCH   4   7
HETATM    7  C   UNL     1     -15.940 -40.417  30.787  1.00  0.00     0.181 C 
BRANCH   7   8
HETATM    8  O   UNL     1     -15.081 -41.569  30.845  1.00  0.00    -0.390 OA
ATOM      9  HO  UNL     1     -14.474 -41.439  31.564  1.00  0.00     0.210 HD
ENDBRANCH   7   8
BRANCH   7  10
HETATM   10  C   UNL     1     -16.398 -40.075  32.199  1.00  0.00     0.173 C 
BRANCH  10  11
HETATM   11  O   UNL     1     -16.881 -38.726  32.291  1.00  0.00    -0.391 OA
ATOM     12  HO  UNL     1     -17.816 -38.696  32.457  1.00  0.00     0.210 HD
ENDBRANCH  10  11
BRANCH  10  13
HETATM   13  C   UNL     1     -15.251 -40.258  33.200  1.00  0.00     0.198 C 
BRANCH  13  14
HETATM   14  O   UNL     1     -14.180 -39.372  32.850  1.00  0.00    -0.398 OA
ATOM     15  HO  UNL     1     -14.509 -38.481  32.835  1.00  0.00     0.209 HD
ENDBRANCH  13  14
ENDBRANCH  10  13
ENDBRANCH   7  10
ENDBRANCH   4   7
BRANCH   3  16
HETATM   16  O   UNL     1     -17.338 -43.045  30.794  1.00  0.00    -0.390 OA
ATOM     17  HO  UNL     1     -17.783 -43.580  31.442  1.00  0.00     0.210 HD
ENDBRANCH   3  16
BRANCH   6  18
HETATM   18  C   UNL     1     -19.777 -38.377  28.951  1.00  0.00     0.233 C 
HETATM   19  O   UNL     1     -19.088 -37.523  28.335  1.00  0.00    -0.642 OA
HETATM   20  O   UNL     1     -20.968 -38.099  29.239  1.00  0.00    -0.642 OA
ENDBRANCH   6  18
BRANCH   2  21
HETATM   21  O   UNL     1     -20.201 -42.946  30.475  1.00  0.00    -0.389 OA
ATOM     22  HO  UNL     1     -21.089 -42.847  30.152  1.00  0.00     0.210 HD
ENDBRANCH   2  21
TORSDOF 9
ENDMDL
MODEL 4
REMARK VINA RESULT:    -6.621      1.923      3.401
REMARK INTER + INTRA:          -9.546
REMARK INTER:                  -8.457
REMARK INTRA:                  -1.089
REMARK UNBOUND:                -0.409
REMARK  9 active torsions:
REMARK  status: ('A' for Active; 'I' for Inactive)
REMARK    1  A    between atoms: C_1  and  C_16 
REMARK    2  A    between atoms: C_3  and  O_13 
REMARK    3  A    between atoms: C_4  and  O_9 
REMARK    4  A    between atoms: C_5  and  C_6 
REMARK    5  A    between atoms: C_6  and  O_17 
REMARK    6  A    between atoms: C_6  and  C_7 
REMARK    7  A    between atoms: C_7  and  O_19 
REMARK    8  A    between atoms: C_7  and  C_8 
REMARK    9  A    between atoms: C_8  and  O_21 
ROOT
HETATM    1  C   UNL     1     -21.399 -42.094  29.413  1.00  0.00     0.051 C 
HETATM    2  C   UNL     1     -21.830 -40.738  29.434  1.00  0.00     0.175 C 
HETATM    3  C   UNL     1     -20.662 -39.755  29.330  1.00  0.00     0.182 C 
HETATM    4  C   UNL     1     -19.598 -40.103  30.373  1.00  0.00     0.192 C 
HETATM    5  O   UNL     1     -19.192 -41.479  30.205  1.00  0.00    -0.334 OA
HETATM    6  C   UNL     1     -20.103 -42.438  29.823  1.00  0.00     0.144 C 
ENDROOT
BRANCH   4   7
HETATM    7  C   UNL     1     -18.340 -39.227  30.205  1.00  0.00     0.181 C 
BRANCH   7   8
HETATM    8  O   UNL     1     -18.164 -38.983  28.799  1.00  0.00    -0.390 OA
ATOM      9  HO  UNL     1     -19.022 -38.812  28.427  1.00  0.00     0.210 HD
ENDBRANCH   7   8
BRANCH   7  10
HETATM   10  C   UNL     1     -17.117 -39.968  30.732  1.00  0.00     0.173 C 
BRANCH  10  11
HETATM   11  O   UNL     1     -16.351 -39.158  31.636  1.00  0.00    -0.391 OA
ATOM     12  HO  UNL     1     -16.717 -39.164  32.512  1.00  0.00     0.210 HD
ENDBRANCH  10  11
BRANCH  10  13
HETATM   13  C   UNL     1     -16.212 -40.409  29.575  1.00  0.00     0.198 C 
BRANCH  13  14
HETATM   14  O   UNL     1     -16.786 -41.562  28.947  1.00  0.00    -0.398 OA
ATOM     15  HO  UNL     1     -16.443 -42.344  29.363  1.00  0.00     0.209 HD
ENDBRANCH  13  14
ENDBRANCH  10  13
ENDBRANCH   7  10
ENDBRANCH   4   7
BRANCH   3  16
HETATM   16  O   UNL     1     -21.121 -38.400  29.540  1.00  0.00    -0.390 OA
ATOM     17  HO  UNL     1     -21.545 -38.082  28.752  1.00  0.00     0.210 HD
ENDBRANCH   3  16
BRANCH   6  18
HETATM   18  C   UNL     1     -19.612 -43.759  29.905  1.00  0.00     0.233 C 
HETATM   19  O   UNL     1     -18.446 -44.062  29.541  1.00  0.00    -0.642 OA
HETATM   20  O   UNL     1     -20.371 -44.670  30.321  1.00  0.00    -0.642 OA
ENDBRANCH   6  18
BRANCH   2  21
HETATM   21  O   UNL     1     -22.807 -40.450  28.415  1.00  0.00    -0.389 OA
ATOM     22  HO  UNL     1     -22.642 -39.591  28.043  1.00  0.00     0.210 HD
ENDBRANCH   2  21
TORSDOF 9
ENDMDL
MODEL 5
REMARK VINA RESULT:    -6.598      1.846      5.605
REMARK INTER + INTRA:          -9.514
REMARK INTER:                  -8.844
REMARK INTRA:                  -0.670
REMARK UNBOUND:                -0.409
REMARK  9 active torsions:
REMARK  status: ('A' for Active; 'I' for Inactive)
REMARK    1  A    between atoms: C_1  and  C_16 
REMARK    2  A    between atoms: C_3  and  O_13 
REMARK    3  A    between atoms: C_4  and  O_9 
REMARK    4  A    between atoms: C_5  and  C_6 
REMARK    5  A    between atoms: C_6  and  O_17 
REMARK    6  A    between atoms: C_6  and  C_7 
REMARK    7  A    between atoms: C_7  and  O_19 
REMARK    8  A    between atoms: C_7  and  C_8 
REMARK    9  A    between atoms: C_8  and  O_21 
ROOT
HETATM    1  C   UNL     1     -16.569 -39.807  30.590  1.00  0.00     0.051 C 
HETATM    2  C   UNL     1     -16.505 -41.116  31.145  1.00  0.00     0.175 C 
HETATM    3  C   UNL     1     -17.360 -42.119  30.368  1.00  0.00     0.182 C 
HETATM    4  C   UNL     1     -18.777 -41.568  30.194  1.00  0.00     0.192 C 
HETATM    5  O   UNL     1     -18.713 -40.271  29.558  1.00  0.00    -0.334 OA
HETATM    6  C   UNL     1     -17.679 -39.405  29.834  1.00  0.00     0.144 C 
ENDROOT
BRANCH   4   7
HETATM    7  C   UNL     1     -19.628 -42.483  29.290  1.00  0.00     0.181 C 
BRANCH   7   8
HETATM    8  O   UNL     1     -20.376 -41.639  28.397  1.00  0.00    -0.390 OA
ATOM      9  HO  UNL     1     -20.967 -41.114  28.925  1.00  0.00     0.210 HD
ENDBRANCH   7   8
BRANCH   7  10
HETATM   10  C   UNL     1     -20.604 -43.288  30.139  1.00  0.00     0.173 C 
BRANCH  10  11
HETATM   11  O   UNL     1     -19.990 -44.462  30.689  1.00  0.00    -0.391 OA
ATOM     12  HO  UNL     1     -19.100 -44.575  30.376  1.00  0.00     0.210 HD
ENDBRANCH  10  11
BRANCH  10  13
HETATM   13  C   UNL     1     -21.823 -43.710  29.309  1.00  0.00     0.198 C 
BRANCH  13  14
HETATM   14  O   UNL     1     -21.373 -44.237  28.055  1.00  0.00    -0.398 OA
ATOM     15  HO  UNL     1     -20.870 -43.570  27.602  1.00  0.00     0.209 HD
ENDBRANCH  13  14
ENDBRANCH  10  13
ENDBRANCH   7  10
ENDBRANCH   4   7
BRANCH   3  16
HETATM   16  O   UNL     1     -17.417 -43.384  31.066  1.00  0.00    -0.390 OA
ATOM     17  HO  UNL     1     -17.242 -44.092  30.456  1.00  0.00     0.210 HD
ENDBRANCH   3  16
BRANCH   6  18
HETATM   18  C   UNL     1     -17.862 -38.108  29.307  1.00  0.00     0.233 C 
HETATM   19  O   UNL     1     -18.875 -37.802  28.625  1.00  0.00    -0.642 OA
HETATM   20  O   UNL     1     -16.974 -37.240  29.492  1.00  0.00    -0.642 OA
ENDBRANCH   6  18
BRANCH   2  21
HETATM   21  O   UNL     1     -15.157 -41.606  31.261  1.00  0.00    -0.389 OA
ATOM     22  HO  UNL     1     -15.145 -42.401  31.781  1.00  0.00     0.210 HD
ENDBRANCH   2  21
TORSDOF 9
ENDMDL
MODEL 6
REMARK VINA RESULT:    -6.558      2.092      5.253
REMARK INTER + INTRA:          -9.459
REMARK INTER:                  -8.552
REMARK INTRA:                  -0.907
REMARK UNBOUND:                -0.409
REMARK  9 active torsions:
REMARK  status: ('A' for Active; 'I' for Inactive)
REMARK    1  A    between atoms: C_1  and  C_16 
REMARK    2  A    between atoms: C_3  and  O_13 
REMARK    3  A    between atoms: C_4  and  O_9 
REMARK    4  A    between atoms: C_5  and  C_6 
REMARK    5  A    between atoms: C_6  and  O_17 
REMARK    6  A    between atoms: C_6  and  C_7 
REMARK    7  A    between atoms: C_7  and  O_19 
REMARK    8  A    between atoms: C_7  and  C_8 
REMARK    9  A    between atoms: C_8  and  O_21 
ROOT
HETATM    1  C   UNL     1     -18.256 -43.318  30.191  1.00  0.00     0.051 C 
HETATM    2  C   UNL     1     -19.576 -43.740  29.869  1.00  0.00     0.175 C 
HETATM    3  C   UNL     1     -20.334 -42.697  29.045  1.00  0.00     0.182 C 
HETATM    4  C   UNL     1     -20.249 -41.332  29.731  1.00  0.00     0.192 C 
HETATM    5  O   UNL     1     -18.862 -40.985  29.939  1.00  0.00    -0.334 OA
HETATM    6  C   UNL     1     -17.934 -41.954  30.246  1.00  0.00     0.144 C 
ENDROOT
BRANCH   4   7
HETATM    7  C   UNL     1     -20.875 -40.225  28.859  1.00  0.00     0.181 C 
BRANCH   7   8
HETATM    8  O   UNL     1     -20.395 -40.405  27.515  1.00  0.00    -0.390 OA
ATOM      9  HO  UNL     1     -19.542 -39.990  27.456  1.00  0.00     0.210 HD
ENDBRANCH   7   8
BRANCH   7  10
HETATM   10  C   UNL     1     -20.432 -38.856  29.359  1.00  0.00     0.173 C 
BRANCH  10  11
HETATM   11  O   UNL     1     -21.540 -37.954  29.499  1.00  0.00    -0.391 OA
ATOM     12  HO  UNL     1     -22.033 -37.874  28.692  1.00  0.00     0.210 HD
ENDBRANCH  10  11
BRANCH  10  13
HETATM   13  C   UNL     1     -19.407 -38.235  28.401  1.00  0.00     0.198 C 
BRANCH  13  14
HETATM   14  O   UNL     1     -18.094 -38.665  28.781  1.00  0.00    -0.398 OA
ATOM     15  HO  UNL     1     -18.080 -38.827  29.717  1.00  0.00     0.209 HD
ENDBRANCH  13  14
ENDBRANCH  10  13
ENDBRANCH   7  10
ENDBRANCH   4   7
BRANCH   3  16
HETATM   16  O   UNL     1     -21.721 -43.078  28.898  1.00  0.00    -0.390 OA
ATOM     17  HO  UNL     1     -22.228 -42.326  28.614  1.00  0.00     0.210 HD
ENDBRANCH   3  16
BRANCH   6  18
HETATM   18  C   UNL     1     -16.675 -41.443  30.626  1.00  0.00     0.233 C 
HETATM   19  O   UNL     1     -16.227 -41.573  31.795  1.00  0.00    -0.642 OA
HETATM   20  O   UNL     1     -15.991 -40.808  29.785  1.00  0.00    -0.642 OA
ENDBRANCH   6  18
BRANCH   2  21
HETATM   21  O   UNL     1     -19.605 -45.013  29.197  1.00  0.00    -0.389 OA
ATOM     22  HO  UNL     1     -19.319 -44.910  28.297  1.00  0.00     0.210 HD
ENDBRANCH   2  21
TORSDOF 9
ENDMDL
MODEL 7
REMARK VINA RESULT:    -6.347      2.179      4.578
REMARK INTER + INTRA:          -9.168
REMARK INTER:                  -8.478
REMARK INTRA:                  -0.690
REMARK UNBOUND:                -0.409
REMARK  9 active torsions:
REMARK  status: ('A' for Active; 'I' for Inactive)
REMARK    1  A    between atoms: C_1  and  C_16 
REMARK    2  A    between atoms: C_3  and  O_13 
REMARK    3  A    between atoms: C_4  and  O_9 
REMARK    4  A    between atoms: C_5  and  C_6 
REMARK    5  A    between atoms: C_6  and  O_17 
REMARK    6  A    between atoms: C_6  and  C_7 
REMARK    7  A    between atoms: C_7  and  O_19 
REMARK    8  A    between atoms: C_7  and  C_8 
REMARK    9  A    between atoms: C_8  and  O_21 
ROOT
HETATM    1  C   UNL     1     -17.771 -43.083  30.253  1.00  0.00     0.051 C 
HETATM    2  C   UNL     1     -17.065 -41.848  30.254  1.00  0.00     0.175 C 
HETATM    3  C   UNL     1     -17.992 -40.648  30.457  1.00  0.00     0.182 C 
HETATM    4  C   UNL     1     -19.155 -40.717  29.465  1.00  0.00     0.192 C 
HETATM    5  O   UNL     1     -19.834 -41.985  29.610  1.00  0.00    -0.334 OA
HETATM    6  C   UNL     1     -19.129 -43.129  29.906  1.00  0.00     0.144 C 
ENDROOT
BRANCH   4   7
HETATM    7  C   UNL     1     -20.190 -39.606  29.734  1.00  0.00     0.181 C 
BRANCH   7   8
HETATM    8  O   UNL     1     -21.195 -40.150  30.607  1.00  0.00    -0.390 OA
ATOM      9  HO  UNL     1     -21.173 -39.652  31.417  1.00  0.00     0.210 HD
ENDBRANCH   7   8
BRANCH   7  10
HETATM   10  C   UNL     1     -20.850 -39.184  28.428  1.00  0.00     0.173 C 
BRANCH  10  11
HETATM   11  O   UNL     1     -20.592 -40.121  27.372  1.00  0.00    -0.391 OA
ATOM     12  HO  UNL     1     -21.342 -40.680  27.205  1.00  0.00     0.210 HD
ENDBRANCH  10  11
BRANCH  10  13
HETATM   13  C   UNL     1     -20.352 -37.799  27.992  1.00  0.00     0.198 C 
BRANCH  13  14
HETATM   14  O   UNL     1     -19.026 -37.601  28.497  1.00  0.00    -0.398 OA
ATOM     15  HO  UNL     1     -18.945 -36.708  28.810  1.00  0.00     0.209 HD
ENDBRANCH  13  14
ENDBRANCH  10  13
ENDBRANCH   7  10
ENDBRANCH   4   7
BRANCH   3  16
HETATM   16  O   UNL     1     -17.268 -39.411  30.267  1.00  0.00    -0.390 OA
ATOM     17  HO  UNL     1     -16.350 -39.545  30.472  1.00  0.00     0.210 HD
ENDBRANCH   3  16
BRANCH   6  18
HETATM   18  C   UNL     1     -19.891 -44.313  29.807  1.00  0.00     0.233 C 
HETATM   19  O   UNL     1     -20.651 -44.697  30.734  1.00  0.00    -0.642 OA
HETATM   20  O   UNL     1     -19.784 -45.027  28.779  1.00  0.00    -0.642 OA
ENDBRANCH   6  18
BRANCH   2  21
HETATM   21  O   UNL     1     -16.001 -41.816  31.223  1.00  0.00    -0.389 OA
ATOM     22  HO  UNL     1     -15.287 -41.276  30.904  1.00  0.00     0.210 HD
ENDBRANCH   2  21
TORSDOF 9
ENDMDL
MODEL 8
REMARK VINA RESULT:    -6.291      1.448      5.000
REMARK INTER + INTRA:          -9.091
REMARK INTER:                  -8.515
REMARK INTRA:                  -0.576
REMARK UNBOUND:                -0.409
REMARK  9 active torsions:
REMARK  status: ('A' for Active; 'I' for Inactive)
REMARK    1  A    between atoms: C_1  and  C_16 
REMARK    2  A    between atoms: C_3  and  O_13 
REMARK    3  A    between atoms: C_4  and  O_9 
REMARK    4  A    between atoms: C_5  and  C_6 
REMARK    5  A    between atoms: C_6  and  O_17 
REMARK    6  A    between atoms: C_6  and  C_7 
REMARK    7  A    between atoms: C_7  and  O_19 
REMARK    8  A    between atoms: C_7  and  C_8 
REMARK    9  A    between atoms: C_8  and  O_21 
ROOT
HETATM    1  C   UNL     1     -17.799 -38.839  29.982  1.00  0.00     0.051 C 
HETATM    2  C   UNL     1     -18.629 -38.872  28.826  1.00  0.00     0.175 C 
HETATM    3  C   UNL     1     -19.768 -39.884  28.957  1.00  0.00     0.182 C 
HETATM    4  C   UNL     1     -19.208 -41.244  29.379  1.00  0.00     0.192 C 
HETATM    5  O   UNL     1     -18.447 -41.092  30.598  1.00  0.00    -0.334 OA
HETATM    6  C   UNL     1     -17.706 -39.955  30.826  1.00  0.00     0.144 C 
ENDROOT
BRANCH   4   7
HETATM    7  C   UNL     1     -20.338 -42.254  29.664  1.00  0.00     0.181 C 
BRANCH   7   8
HETATM    8  O   UNL     1     -21.082 -41.768  30.795  1.00  0.00    -0.390 OA
ATOM      9  HO  UNL     1     -20.763 -42.223  31.566  1.00  0.00     0.210 HD
ENDBRANCH   7   8
BRANCH   7  10
HETATM   10  C   UNL     1     -19.745 -43.613  30.013  1.00  0.00     0.173 C 
BRANCH  10  11
HETATM   11  O   UNL     1     -18.332 -43.659  29.763  1.00  0.00    -0.391 OA
ATOM     12  HO  UNL     1     -18.128 -44.153  28.978  1.00  0.00     0.210 HD
ENDBRANCH  10  11
BRANCH  10  13
HETATM   13  C   UNL     1     -20.426 -44.725  29.206  1.00  0.00     0.198 C 
BRANCH  13  14
HETATM   14  O   UNL     1     -21.010 -44.155  28.028  1.00  0.00    -0.398 OA
ATOM     15  HO  UNL     1     -20.436 -43.475  27.697  1.00  0.00     0.209 HD
ENDBRANCH  13  14
ENDBRANCH  10  13
ENDBRANCH   7  10
ENDBRANCH   4   7
BRANCH   3  16
HETATM   16  O   UNL     1     -20.471 -40.021  27.701  1.00  0.00    -0.390 OA
ATOM     17  HO  UNL     1     -20.398 -39.212  27.207  1.00  0.00     0.210 HD
ENDBRANCH   3  16
BRANCH   6  18
HETATM   18  C   UNL     1     -16.856 -40.040  31.951  1.00  0.00     0.233 C 
HETATM   19  O   UNL     1     -16.517 -39.023  32.609  1.00  0.00    -0.642 OA
HETATM   20  O   UNL     1     -16.395 -41.159  32.288  1.00  0.00    -0.642 OA
ENDBRANCH   6  18
BRANCH   2  21
HETATM   21  O   UNL     1     -19.159 -37.577  28.485  1.00  0.00    -0.389 OA
ATOM     22  HO  UNL     1     -18.536 -36.900  28.722  1.00  0.00     0.210 HD
ENDBRANCH   2  21
TORSDOF 9
ENDMDL
MODEL 9
REMARK VINA RESULT:    -6.259      2.053      4.425
REMARK INTER + INTRA:          -9.046
REMARK INTER:                  -8.497
REMARK INTRA:                  -0.549
REMARK UNBOUND:                -0.409
REMARK  9 active torsions:
REMARK  status: ('A' for Active; 'I' for Inactive)
REMARK    1  A    between atoms: C_1  and  C_16 
REMARK    2  A    between atoms: C_3  and  O_13 
REMARK    3  A    between atoms: C_4  and  O_9 
REMARK    4  A    between atoms: C_5  and  C_6 
REMARK    5  A    between atoms: C_6  and  O_17 
REMARK    6  A    between atoms: C_6  and  C_7 
REMARK    7  A    between atoms: C_7  and  O_19 
REMARK    8  A    between atoms: C_7  and  C_8 
REMARK    9  A    between atoms: C_8  and  O_21 
ROOT
HETATM    1  C   UNL     1     -21.079 -40.447  28.445  1.00  0.00     0.051 C 
HETATM    2  C   UNL     1     -20.760 -41.790  28.790  1.00  0.00     0.175 C 
HETATM    3  C   UNL     1     -19.902 -41.879  30.053  1.00  0.00     0.182 C 
HETATM    4  C   UNL     1     -18.693 -40.949  29.925  1.00  0.00     0.192 C 
HETATM    5  O   UNL     1     -19.149 -39.606  29.646  1.00  0.00    -0.334 OA
HETATM    6  C   UNL     1     -20.255 -39.390  28.856  1.00  0.00     0.144 C 
ENDROOT
BRANCH   4   7
HETATM    7  C   UNL     1     -17.882 -40.898  31.235  1.00  0.00     0.181 C 
BRANCH   7   8
HETATM    8  O   UNL     1     -18.600 -40.063  32.160  1.00  0.00    -0.390 OA
ATOM      9  HO  UNL     1     -18.015 -39.863  32.881  1.00  0.00     0.210 HD
ENDBRANCH   7   8
BRANCH   7  10
HETATM   10  C   UNL     1     -16.514 -40.280  30.975  1.00  0.00     0.173 C 
BRANCH  10  11
HETATM   11  O   UNL     1     -16.621 -38.959  30.423  1.00  0.00    -0.391 OA
ATOM     12  HO  UNL     1     -16.805 -38.981  29.491  1.00  0.00     0.210 HD
ENDBRANCH  10  11
BRANCH  10  13
HETATM   13  C   UNL     1     -15.699 -41.154  30.014  1.00  0.00     0.198 C 
BRANCH  13  14
HETATM   14  O   UNL     1     -15.495 -40.436  28.790  1.00  0.00    -0.398 OA
ATOM     15  HO  UNL     1     -14.806 -40.860  28.294  1.00  0.00     0.209 HD
ENDBRANCH  13  14
ENDBRANCH  10  13
ENDBRANCH   7  10
ENDBRANCH   4   7
BRANCH   3  16
HETATM   16  O   UNL     1     -19.447 -43.235  30.263  1.00  0.00    -0.390 OA
ATOM     17  HO  UNL     1     -20.099 -43.715  30.761  1.00  0.00     0.210 HD
ENDBRANCH   3  16
BRANCH   6  18
HETATM   18  C   UNL     1     -20.451 -38.037  28.502  1.00  0.00     0.233 C 
HETATM   19  O   UNL     1     -19.555 -37.359  27.935  1.00  0.00    -0.642 OA
HETATM   20  O   UNL     1     -21.539 -37.479  28.791  1.00  0.00    -0.642 OA
ENDBRANCH   6  18
BRANCH   2  21
HETATM   21  O   UNL     1     -21.928 -42.620  28.931  1.00  0.00    -0.389 OA
ATOM     22  HO  UNL     1     -22.435 -42.341  29.685  1.00  0.00     0.210 HD
ENDBRANCH   2  21
TORSDOF 9
ENDMDL
MODEL 10
REMARK VINA RESULT:    -6.154      5.622      9.171
REMARK INTER + INTRA:          -8.901
REMARK INTER:                  -8.381
REMARK INTRA:                  -0.521
REMARK UNBOUND:                -0.409
REMARK  9 active torsions:
REMARK  status: ('A' for Active; 'I' for Inactive)
REMARK    1  A    between atoms: C_1  and  C_16 
REMARK    2  A    between atoms: C_3  and  O_13 
REMARK    3  A    between atoms: C_4  and  O_9 
REMARK    4  A    between atoms: C_5  and  C_6 
REMARK    5  A    between atoms: C_6  and  O_17 
REMARK    6  A    between atoms: C_6  and  C_7 
REMARK    7  A    between atoms: C_7  and  O_19 
REMARK    8  A    between atoms: C_7  and  C_8 
REMARK    9  A    between atoms: C_8  and  O_21 
ROOT
HETATM    1  C   UNL     1     -21.632 -44.861  31.180  1.00  0.00     0.051 C 
HETATM    2  C   UNL     1     -22.331 -45.723  32.070  1.00  0.00     0.175 C 
HETATM    3  C   UNL     1     -21.803 -47.158  32.025  1.00  0.00     0.182 C 
HETATM    4  C   UNL     1     -21.749 -47.645  30.575  1.00  0.00     0.192 C 
HETATM    5  O   UNL     1     -20.955 -46.728  29.790  1.00  0.00    -0.334 OA
HETATM    6  C   UNL     1     -20.983 -45.376  30.049  1.00  0.00     0.144 C 
ENDROOT
BRANCH   4   7
HETATM    7  C   UNL     1     -21.085 -49.033  30.473  1.00  0.00     0.181 C 
BRANCH   7   8
HETATM    8  O   UNL     1     -19.914 -48.897  29.649  1.00  0.00    -0.390 OA
ATOM      9  HO  UNL     1     -19.598 -48.006  29.743  1.00  0.00     0.210 HD
ENDBRANCH   7   8
BRANCH   7  10
HETATM   10  C   UNL     1     -22.040 -50.018  29.811  1.00  0.00     0.173 C 
BRANCH  10  11
HETATM   11  O   UNL     1     -22.619 -50.923  30.764  1.00  0.00    -0.391 OA
ATOM     12  HO  UNL     1     -23.282 -51.476  30.369  1.00  0.00     0.210 HD
ENDBRANCH  10  11
BRANCH  10  13
HETATM   13  C   UNL     1     -21.316 -50.834  28.733  1.00  0.00     0.198 C 
BRANCH  13  14
HETATM   14  O   UNL     1     -20.655 -51.944  29.353  1.00  0.00    -0.398 OA
ATOM     15  HO  UNL     1     -20.744 -52.707  28.795  1.00  0.00     0.209 HD
ENDBRANCH  13  14
ENDBRANCH  10  13
ENDBRANCH   7  10
ENDBRANCH   4   7
BRANCH   3  16
HETATM   16  O   UNL     1     -22.654 -48.036  32.797  1.00  0.00    -0.390 OA
ATOM     17  HO  UNL     1     -22.924 -48.771  32.259  1.00  0.00     0.210 HD
ENDBRANCH   3  16
BRANCH   6  18
HETATM   18  C   UNL     1     -20.328 -44.592  29.074  1.00  0.00     0.233 C 
HETATM   19  O   UNL     1     -20.921 -44.172  28.047  1.00  0.00    -0.642 OA
HETATM   20  O   UNL     1     -19.107 -44.332  29.216  1.00  0.00    -0.642 OA
ENDBRANCH   6  18
BRANCH   2  21
HETATM   21  O   UNL     1     -22.329 -45.242  33.427  1.00  0.00    -0.389 OA
ATOM     22  HO  UNL     1     -23.205 -45.298  33.792  1.00  0.00     0.210 HD
ENDBRANCH   2  21
TORSDOF 9
ENDMDL
MODEL 11
REMARK VINA RESULT:    -6.153      1.768      5.394
REMARK INTER + INTRA:          -8.900
REMARK INTER:                  -7.869
REMARK INTRA:                  -1.032
REMARK UNBOUND:                -0.409
REMARK  9 active torsions:
REMARK  status: ('A' for Active; 'I' for Inactive)
REMARK    1  A    between atoms: C_1  and  C_16 
REMARK    2  A    between atoms: C_3  and  O_13 
REMARK    3  A    between atoms: C_4  and  O_9 
REMARK    4  A    between atoms: C_5  and  C_6 
REMARK    5  A    between atoms: C_6  and  O_17 
REMARK    6  A    between atoms: C_6  and  C_7 
REMARK    7  A    between atoms: C_7  and  O_19 
REMARK    8  A    between atoms: C_7  and  C_8 
REMARK    9  A    between atoms: C_8  and  O_21 
ROOT
HETATM    1  C   UNL     1     -17.370 -42.070  31.019  1.00  0.00     0.051 C 
HETATM    2  C   UNL     1     -18.478 -42.596  30.298  1.00  0.00     0.175 C 
HETATM    3  C   UNL     1     -19.306 -41.499  29.623  1.00  0.00     0.182 C 
HETATM    4  C   UNL     1     -19.664 -40.418  30.645  1.00  0.00     0.192 C 
HETATM    5  O   UNL     1     -18.454 -39.915  31.256  1.00  0.00    -0.334 OA
HETATM    6  C   UNL     1     -17.393 -40.755  31.504  1.00  0.00     0.144 C 
ENDROOT
BRANCH   4   7
HETATM    7  C   UNL     1     -20.372 -39.224  29.974  1.00  0.00     0.181 C 
BRANCH   7   8
HETATM    8  O   UNL     1     -21.730 -39.616  29.707  1.00  0.00    -0.390 OA
ATOM      9  HO  UNL     1     -22.171 -38.874  29.311  1.00  0.00     0.210 HD
ENDBRANCH   7   8
BRANCH   7  10
HETATM   10  C   UNL     1     -19.689 -38.890  28.653  1.00  0.00     0.173 C 
BRANCH  10  11
HETATM   11  O   UNL     1     -18.754 -37.810  28.794  1.00  0.00    -0.391 OA
ATOM     12  HO  UNL     1     -19.098 -36.998  28.442  1.00  0.00     0.210 HD
ENDBRANCH  10  11
BRANCH  10  13
HETATM   13  C   UNL     1     -20.725 -38.512  27.588  1.00  0.00     0.198 C 
BRANCH  13  14
HETATM   14  O   UNL     1     -21.143 -39.698  26.901  1.00  0.00    -0.398 OA
ATOM     15  HO  UNL     1     -20.886 -40.457  27.411  1.00  0.00     0.209 HD
ENDBRANCH  13  14
ENDBRANCH  10  13
ENDBRANCH   7  10
ENDBRANCH   4   7
BRANCH   3  16
HETATM   16  O   UNL     1     -20.517 -42.053  29.061  1.00  0.00    -0.390 OA
ATOM     17  HO  UNL     1     -20.304 -42.569  28.293  1.00  0.00     0.210 HD
ENDBRANCH   3  16
BRANCH   6  18
HETATM   18  C   UNL     1     -16.373 -40.173  32.290  1.00  0.00     0.233 C 
HETATM   19  O   UNL     1     -16.299 -38.930  32.473  1.00  0.00    -0.642 OA
HETATM   20  O   UNL     1     -15.492 -40.911  32.795  1.00  0.00    -0.642 OA
ENDBRANCH   6  18
BRANCH   2  21
HETATM   21  O   UNL     1     -18.091 -43.586  29.327  1.00  0.00    -0.389 OA
ATOM     22  HO  UNL     1     -17.267 -43.984  29.581  1.00  0.00     0.210 HD
ENDBRANCH   2  21
TORSDOF 9
ENDMDL
MODEL 12
REMARK VINA RESULT:    -6.150      2.449      5.383
REMARK INTER + INTRA:          -8.897
REMARK INTER:                  -7.961
REMARK INTRA:                  -0.935
REMARK UNBOUND:                -0.409
REMARK  9 active torsions:
REMARK  status: ('A' for Active; 'I' for Inactive)
REMARK    1  A    between atoms: C_1  and  C_16 
REMARK    2  A    between atoms: C_3  and  O_13 
REMARK    3  A    between atoms: C_4  and  O_9 
REMARK    4  A    between atoms: C_5  and  C_6 
REMARK    5  A    between atoms: C_6  and  O_17 
REMARK    6  A    between atoms: C_6  and  C_7 
REMARK    7  A    between atoms: C_7  and  O_19 
REMARK    8  A    between atoms: C_7  and  C_8 
REMARK    9  A    between atoms: C_8  and  O_21 
ROOT
HETATM    1  C   UNL     1     -19.174 -39.758  29.678  1.00  0.00     0.051 C 
HETATM    2  C   UNL     1     -20.509 -39.629  29.204  1.00  0.00     0.175 C 
HETATM    3  C   UNL     1     -21.378 -40.830  29.582  1.00  0.00     0.182 C 
HETATM    4  C   UNL     1     -20.677 -42.127  29.171  1.00  0.00     0.192 C 
HETATM    5  O   UNL     1     -19.362 -42.172  29.769  1.00  0.00    -0.334 OA
HETATM    6  C   UNL     1     -18.622 -41.023  29.924  1.00  0.00     0.144 C 
ENDROOT
BRANCH   4   7
HETATM    7  C   UNL     1     -21.452 -43.365  29.664  1.00  0.00     0.181 C 
BRANCH   7   8
HETATM    8  O   UNL     1     -22.119 -43.003  30.886  1.00  0.00    -0.390 OA
ATOM      9  HO  UNL     1     -22.554 -42.171  30.740  1.00  0.00     0.210 HD
ENDBRANCH   7   8
BRANCH   7  10
HETATM   10  C   UNL     1     -20.481 -44.504  29.954  1.00  0.00     0.173 C 
BRANCH  10  11
HETATM   11  O   UNL     1     -19.854 -44.988  28.758  1.00  0.00    -0.391 OA
ATOM     12  HO  UNL     1     -20.473 -45.430  28.188  1.00  0.00     0.210 HD
ENDBRANCH  10  11
BRANCH  10  13
HETATM   13  C   UNL     1     -21.204 -45.670  30.641  1.00  0.00     0.198 C 
BRANCH  13  14
HETATM   14  O   UNL     1     -20.980 -45.590  32.054  1.00  0.00    -0.398 OA
ATOM     15  HO  UNL     1     -21.666 -45.064  32.446  1.00  0.00     0.209 HD
ENDBRANCH  13  14
ENDBRANCH  10  13
ENDBRANCH   7  10
ENDBRANCH   4   7
BRANCH   3  16
HETATM   16  O   UNL     1     -22.665 -40.750  28.928  1.00  0.00    -0.390 OA
ATOM     17  HO  UNL     1     -23.205 -41.485  29.197  1.00  0.00     0.210 HD
ENDBRANCH   3  16
BRANCH   6  18
HETATM   18  C   UNL     1     -17.287 -41.251  30.324  1.00  0.00     0.233 C 
HETATM   19  O   UNL     1     -16.958 -42.254  31.010  1.00  0.00    -0.642 OA
HETATM   20  O   UNL     1     -16.403 -40.412  30.019  1.00  0.00    -0.642 OA
ENDBRANCH   6  18
BRANCH   2  21
HETATM   21  O   UNL     1     -21.140 -38.411  29.642  1.00  0.00    -0.389 OA
ATOM     22  HO  UNL     1     -22.060 -38.567  29.817  1.00  0.00     0.210 HD
ENDBRANCH   2  21
TORSDOF 9
ENDMDL
MODEL 13
REMARK VINA RESULT:    -6.079      2.099      4.794
REMARK INTER + INTRA:          -8.798
REMARK INTER:                  -7.855
REMARK INTRA:                  -0.944
REMARK UNBOUND:                -0.409
REMARK  9 active torsions:
REMARK  status: ('A' for Active; 'I' for Inactive)
REMARK    1  A    between atoms: C_1  and  C_16 
REMARK    2  A    between atoms: C_3  and  O_13 
REMARK    3  A    between atoms: C_4  and  O_9 
REMARK    4  A    between atoms: C_5  and  C_6 
REMARK    5  A    between atoms: C_6  and  O_17 
REMARK    6  A    between atoms: C_6  and  C_7 
REMARK    7  A    between atoms: C_7  and  O_19 
REMARK    8  A    between atoms: C_7  and  C_8 
REMARK    9  A    between atoms: C_8  and  O_21 
ROOT
HETATM    1  C   UNL     1     -16.956 -39.480  29.908  1.00  0.00     0.051 C 
HETATM    2  C   UNL     1     -17.585 -38.462  29.139  1.00  0.00     0.175 C 
HETATM    3  C   UNL     1     -19.111 -38.567  29.173  1.00  0.00     0.182 C 
HETATM    4  C   UNL     1     -19.540 -39.992  28.818  1.00  0.00     0.192 C 
HETATM    5  O   UNL     1     -18.892 -40.925  29.711  1.00  0.00    -0.334 OA
HETATM    6  C   UNL     1     -17.609 -40.696  30.154  1.00  0.00     0.144 C 
ENDROOT
BRANCH   4   7
HETATM    7  C   UNL     1     -21.062 -40.178  28.984  1.00  0.00     0.181 C 
BRANCH   7   8
HETATM    8  O   UNL     1     -21.535 -39.141  29.862  1.00  0.00    -0.390 OA
ATOM      9  HO  UNL     1     -20.900 -39.046  30.563  1.00  0.00     0.210 HD
ENDBRANCH   7   8
BRANCH   7  10
HETATM   10  C   UNL     1     -21.354 -41.531  29.620  1.00  0.00     0.173 C 
BRANCH  10  11
HETATM   11  O   UNL     1     -21.278 -42.598  28.663  1.00  0.00    -0.391 OA
ATOM     12  HO  UNL     1     -20.929 -42.302  27.831  1.00  0.00     0.210 HD
ENDBRANCH  10  11
BRANCH  10  13
HETATM   13  C   UNL     1     -22.749 -41.539  30.260  1.00  0.00     0.198 C 
BRANCH  13  14
HETATM   14  O   UNL     1     -22.616 -41.316  31.669  1.00  0.00    -0.398 OA
ATOM     15  HO  UNL     1     -22.433 -40.396  31.821  1.00  0.00     0.209 HD
ENDBRANCH  13  14
ENDBRANCH  10  13
ENDBRANCH   7  10
ENDBRANCH   4   7
BRANCH   3  16
HETATM   16  O   UNL     1     -19.704 -37.637  28.238  1.00  0.00    -0.390 OA
ATOM     17  HO  UNL     1     -20.605 -37.466  28.488  1.00  0.00     0.210 HD
ENDBRANCH   3  16
BRANCH   6  18
HETATM   18  C   UNL     1     -17.037 -41.788  30.842  1.00  0.00     0.233 C 
HETATM   19  O   UNL     1     -17.406 -42.974  30.637  1.00  0.00    -0.642 OA
HETATM   20  O   UNL     1     -16.156 -41.572  31.711  1.00  0.00    -0.642 OA
ENDBRANCH   6  18
BRANCH   2  21
HETATM   21  O   UNL     1     -17.176 -37.137  29.528  1.00  0.00    -0.389 OA
ATOM     22  HO  UNL     1     -17.692 -36.844  30.270  1.00  0.00     0.210 HD
ENDBRANCH   2  21
TORSDOF 9
ENDMDL
MODEL 14
REMARK VINA RESULT:    -6.052      2.579      6.121
REMARK INTER + INTRA:          -8.761
REMARK INTER:                  -8.214
REMARK INTRA:                  -0.547
REMARK UNBOUND:                -0.409
REMARK  9 active torsions:
REMARK  status: ('A' for Active; 'I' for Inactive)
REMARK    1  A    between atoms: C_1  and  C_16 
REMARK    2  A    between atoms: C_3  and  O_13 
REMARK    3  A    between atoms: C_4  and  O_9 
REMARK    4  A    between atoms: C_5  and  C_6 
REMARK    5  A    between atoms: C_6  and  O_17 
REMARK    6  A    between atoms: C_6  and  C_7 
REMARK    7  A    between atoms: C_7  and  O_19 
REMARK    8  A    between atoms: C_7  and  C_8 
REMARK    9  A    between atoms: C_8  and  O_21 
ROOT
HETATM    1  C   UNL     1     -18.758 -40.547  29.814  1.00  0.00     0.051 C 
HETATM    2  C   UNL     1     -18.045 -41.589  30.468  1.00  0.00     0.175 C 
HETATM    3  C   UNL     1     -18.386 -42.970  29.904  1.00  0.00     0.182 C 
HETATM    4  C   UNL     1     -19.904 -43.157  29.872  1.00  0.00     0.192 C 
HETATM    5  O   UNL     1     -20.505 -42.078  29.122  1.00  0.00    -0.334 OA
HETATM    6  C   UNL     1     -19.982 -40.807  29.180  1.00  0.00     0.144 C 
ENDROOT
BRANCH   4   7
HETATM    7  C   UNL     1     -20.293 -44.476  29.175  1.00  0.00     0.181 C 
BRANCH   7   8
HETATM    8  O   UNL     1     -21.063 -44.141  28.007  1.00  0.00    -0.390 OA
ATOM      9  HO  UNL     1     -21.617 -44.886  27.805  1.00  0.00     0.210 HD
ENDBRANCH   7   8
BRANCH   7  10
HETATM   10  C   UNL     1     -21.155 -45.321  30.105  1.00  0.00     0.173 C 
BRANCH  10  11
HETATM   11  O   UNL     1     -21.003 -46.725  29.844  1.00  0.00    -0.391 OA
ATOM     12  HO  UNL     1     -20.206 -46.910  29.362  1.00  0.00     0.210 HD
ENDBRANCH  10  11
BRANCH  10  13
HETATM   13  C   UNL     1     -22.636 -44.948  29.958  1.00  0.00     0.198 C 
BRANCH  13  14
HETATM   14  O   UNL     1     -23.263 -45.874  29.063  1.00  0.00    -0.398 OA
ATOM     15  HO  UNL     1     -24.165 -45.609  28.927  1.00  0.00     0.209 HD
ENDBRANCH  13  14
ENDBRANCH  10  13
ENDBRANCH   7  10
ENDBRANCH   4   7
BRANCH   3  16
HETATM   16  O   UNL     1     -17.788 -44.009  30.712  1.00  0.00    -0.390 OA
ATOM     17  HO  UNL     1     -16.879 -43.793  30.886  1.00  0.00     0.210 HD
ENDBRANCH   3  16
BRANCH   6  18
HETATM   18  C   UNL     1     -20.793 -39.825  28.570  1.00  0.00     0.233 C 
HETATM   19  O   UNL     1     -21.160 -39.914  27.370  1.00  0.00    -0.642 OA
HETATM   20  O   UNL     1     -21.132 -38.812  29.231  1.00  0.00    -0.642 OA
ENDBRANCH   6  18
BRANCH   2  21
HETATM   21  O   UNL     1     -16.620 -41.388  30.446  1.00  0.00    -0.389 OA
ATOM     22  HO  UNL     1     -16.291 -41.294  31.332  1.00  0.00     0.210 HD
ENDBRANCH   2  21
TORSDOF 9
ENDMDL
MODEL 15
REMARK VINA RESULT:    -5.998      1.825      5.112
REMARK INTER + INTRA:          -8.687
REMARK INTER:                  -7.737
REMARK INTRA:                  -0.950
REMARK UNBOUND:                -0.409
REMARK  9 active torsions:
REMARK  status: ('A' for Active; 'I' for Inactive)
REMARK    1  A    between atoms: C_1  and  C_16 
REMARK    2  A    between atoms: C_3  and  O_13 
REMARK    3  A    between atoms: C_4  and  O_9 
REMARK    4  A    between atoms: C_5  and  C_6 
REMARK    5  A    between atoms: C_6  and  O_17 
REMARK    6  A    between atoms: C_6  and  C_7 
REMARK    7  A    between atoms: C_7  and  O_19 
REMARK    8  A    between atoms: C_7  and  C_8 
REMARK    9  A    between atoms: C_8  and  O_21 
ROOT
HETATM    1  C   UNL     1     -15.943 -40.393  32.195  1.00  0.00     0.051 C 
HETATM    2  C   UNL     1     -15.763 -41.081  30.963  1.00  0.00     0.175 C 
HETATM    3  C   UNL     1     -16.824 -40.707  29.926  1.00  0.00     0.182 C 
HETATM    4  C   UNL     1     -18.219 -40.849  30.539  1.00  0.00     0.192 C 
HETATM    5  O   UNL     1     -18.299 -40.051  31.741  1.00  0.00    -0.334 OA
HETATM    6  C   UNL     1     -17.208 -39.918  32.569  1.00  0.00     0.144 C 
ENDROOT
BRANCH   4   7
HETATM    7  C   UNL     1     -19.310 -40.341  29.575  1.00  0.00     0.181 C 
BRANCH   7   8
HETATM    8  O   UNL     1     -18.756 -39.244  28.829  1.00  0.00    -0.390 OA
ATOM      9  HO  UNL     1     -19.470 -38.819  28.368  1.00  0.00     0.210 HD
ENDBRANCH   7   8
BRANCH   7  10
HETATM   10  C   UNL     1     -20.511 -39.839  30.367  1.00  0.00     0.173 C 
BRANCH  10  11
HETATM   11  O   UNL     1     -21.090 -40.876  31.173  1.00  0.00    -0.391 OA
ATOM     12  HO  UNL     1     -20.459 -41.555  31.382  1.00  0.00     0.210 HD
ENDBRANCH  10  11
BRANCH  10  13
HETATM   13  C   UNL     1     -21.588 -39.284  29.426  1.00  0.00     0.198 C 
BRANCH  13  14
HETATM   14  O   UNL     1     -21.354 -37.885  29.223  1.00  0.00    -0.398 OA
ATOM     15  HO  UNL     1     -21.916 -37.577  28.522  1.00  0.00     0.209 HD
ENDBRANCH  13  14
ENDBRANCH  10  13
ENDBRANCH   7  10
ENDBRANCH   4   7
BRANCH   3  16
HETATM   16  O   UNL     1     -16.719 -41.558  28.763  1.00  0.00    -0.390 OA
ATOM     17  HO  UNL     1     -16.352 -42.398  29.016  1.00  0.00     0.210 HD
ENDBRANCH   3  16
BRANCH   6  18
HETATM   18  C   UNL     1     -17.496 -39.290  33.800  1.00  0.00     0.233 C 
HETATM   19  O   UNL     1     -16.629 -38.634  34.434  1.00  0.00    -0.642 OA
HETATM   20  O   UNL     1     -18.642 -39.415  34.299  1.00  0.00    -0.642 OA
ENDBRANCH   6  18
BRANCH   2  21
HETATM   21  O   UNL     1     -14.447 -40.893  30.408  1.00  0.00    -0.389 OA
ATOM     22  HO  UNL     1     -14.309 -39.975  30.206  1.00  0.00     0.210 HD
ENDBRANCH   2  21
TORSDOF 9
ENDMDL
MODEL 16
REMARK VINA RESULT:    -5.868      2.605      6.344
REMARK INTER + INTRA:          -8.507
REMARK INTER:                  -7.810
REMARK INTRA:                  -0.698
REMARK UNBOUND:                -0.409
REMARK  9 active torsions:
REMARK  status: ('A' for Active; 'I' for Inactive)
REMARK    1  A    between atoms: C_1  and  C_16 
REMARK    2  A    between atoms: C_3  and  O_13 
REMARK    3  A    between atoms: C_4  and  O_9 
REMARK    4  A    between atoms: C_5  and  C_6 
REMARK    5  A    between atoms: C_6  and  O_17 
REMARK    6  A    between atoms: C_6  and  C_7 
REMARK    7  A    between atoms: C_7  and  O_19 
REMARK    8  A    between atoms: C_7  and  C_8 
REMARK    9  A    between atoms: C_8  and  O_21 
ROOT
HETATM    1  C   UNL     1     -18.424 -41.052  30.296  1.00  0.00     0.051 C 
HETATM    2  C   UNL     1     -19.590 -41.812  30.002  1.00  0.00     0.175 C 
HETATM    3  C   UNL     1     -20.367 -41.247  28.811  1.00  0.00     0.182 C 
HETATM    4  C   UNL     1     -20.614 -39.751  29.015  1.00  0.00     0.192 C 
HETATM    5  O   UNL     1     -19.352 -39.081  29.234  1.00  0.00    -0.334 OA
HETATM    6  C   UNL     1     -18.341 -39.701  29.931  1.00  0.00     0.144 C 
ENDROOT
BRANCH   4   7
HETATM    7  C   UNL     1     -21.265 -39.114  27.771  1.00  0.00     0.181 C 
BRANCH   7   8
HETATM    8  O   UNL     1     -20.541 -37.909  27.469  1.00  0.00    -0.390 OA
ATOM      9  HO  UNL     1     -20.042 -38.064  26.676  1.00  0.00     0.210 HD
ENDBRANCH   7   8
BRANCH   7  10
HETATM   10  C   UNL     1     -22.715 -38.754  28.070  1.00  0.00     0.173 C 
BRANCH  10  11
HETATM   11  O   UNL     1     -23.625 -39.745  27.568  1.00  0.00    -0.391 OA
ATOM     12  HO  UNL     1     -23.840 -39.596  26.655  1.00  0.00     0.210 HD
ENDBRANCH  10  11
BRANCH  10  13
HETATM   13  C   UNL     1     -23.074 -37.396  27.454  1.00  0.00     0.198 C 
BRANCH  13  14
HETATM   14  O   UNL     1     -22.690 -36.357  28.362  1.00  0.00    -0.398 OA
ATOM     15  HO  UNL     1     -22.220 -35.685  27.882  1.00  0.00     0.209 HD
ENDBRANCH  13  14
ENDBRANCH  10  13
ENDBRANCH   7  10
ENDBRANCH   4   7
BRANCH   3  16
HETATM   16  O   UNL     1     -21.632 -41.930  28.662  1.00  0.00    -0.390 OA
ATOM     17  HO  UNL     1     -22.338 -41.293  28.657  1.00  0.00     0.210 HD
ENDBRANCH   3  16
BRANCH   6  18
HETATM   18  C   UNL     1     -17.257 -38.851  30.244  1.00  0.00     0.233 C 
HETATM   19  O   UNL     1     -16.595 -38.978  31.307  1.00  0.00    -0.642 OA
HETATM   20  O   UNL     1     -16.963 -37.917  29.458  1.00  0.00    -0.642 OA
ENDBRANCH   6  18
BRANCH   2  21
HETATM   21  O   UNL     1     -19.305 -43.207  29.786  1.00  0.00    -0.389 OA
ATOM     22  HO  UNL     1     -19.900 -43.561  29.135  1.00  0.00     0.210 HD
ENDBRANCH   2  21
TORSDOF 9
ENDMDL
MODEL 17
REMARK VINA RESULT:    -5.776      4.511      5.825
REMARK INTER + INTRA:          -8.380
REMARK INTER:                  -7.743
REMARK INTRA:                  -0.636
REMARK UNBOUND:                -0.409
REMARK  9 active torsions:
REMARK  status: ('A' for Active; 'I' for Inactive)
REMARK    1  A    between atoms: C_1  and  C_16 
REMARK    2  A    between atoms: C_3  and  O_13 
REMARK    3  A    between atoms: C_4  and  O_9 
REMARK    4  A    between atoms: C_5  and  C_6 
REMARK    5  A    between atoms: C_6  and  O_17 
REMARK    6  A    between atoms: C_6  and  C_7 
REMARK    7  A    between atoms: C_7  and  O_19 
REMARK    8  A    between atoms: C_7  and  C_8 
REMARK    9  A    between atoms: C_8  and  O_21 
ROOT
HETATM    1  C   UNL     1     -22.618 -43.072  30.419  1.00  0.00     0.051 C 
HETATM    2  C   UNL     1     -23.352 -41.907  30.780  1.00  0.00     0.175 C 
HETATM    3  C   UNL     1     -23.234 -40.798  29.732  1.00  0.00     0.182 C 
HETATM    4  C   UNL     1     -21.760 -40.549  29.405  1.00  0.00     0.192 C 
HETATM    5  O   UNL     1     -21.145 -41.787  28.986  1.00  0.00    -0.334 OA
HETATM    6  C   UNL     1     -21.518 -42.983  29.555  1.00  0.00     0.144 C 
ENDROOT
BRANCH   4   7
HETATM    7  C   UNL     1     -21.604 -39.541  28.248  1.00  0.00     0.181 C 
BRANCH   7   8
HETATM    8  O   UNL     1     -20.654 -40.090  27.319  1.00  0.00    -0.390 OA
ATOM      9  HO  UNL     1     -19.784 -39.883  27.642  1.00  0.00     0.210 HD
ENDBRANCH   7   8
BRANCH   7  10
HETATM   10  C   UNL     1     -21.065 -38.219  28.779  1.00  0.00     0.173 C 
BRANCH  10  11
HETATM   11  O   UNL     1     -22.074 -37.198  28.790  1.00  0.00    -0.391 OA
ATOM     12  HO  UNL     1     -22.647 -37.259  28.035  1.00  0.00     0.210 HD
ENDBRANCH  10  11
BRANCH  10  13
HETATM   13  C   UNL     1     -19.882 -37.736  27.931  1.00  0.00     0.198 C 
BRANCH  13  14
HETATM   14  O   UNL     1     -18.668 -38.261  28.482  1.00  0.00    -0.398 OA
ATOM     15  HO  UNL     1     -18.013 -37.574  28.499  1.00  0.00     0.209 HD
ENDBRANCH  13  14
ENDBRANCH  10  13
ENDBRANCH   7  10
ENDBRANCH   4   7
BRANCH   3  16
HETATM   16  O   UNL     1     -23.835 -39.576  30.218  1.00  0.00    -0.390 OA
ATOM     17  HO  UNL     1     -23.168 -38.903  30.293  1.00  0.00     0.210 HD
ENDBRANCH   3  16
BRANCH   6  18
HETATM   18  C   UNL     1     -20.689 -44.070  29.200  1.00  0.00     0.233 C 
HETATM   19  O   UNL     1     -20.713 -44.580  28.050  1.00  0.00    -0.642 OA
HETATM   20  O   UNL     1     -19.927 -44.568  30.066  1.00  0.00    -0.642 OA
ENDBRANCH   6  18
BRANCH   2  21
HETATM   21  O   UNL     1     -24.740 -42.184  31.046  1.00  0.00    -0.389 OA
ATOM     22  HO  UNL     1     -25.201 -42.345  30.231  1.00  0.00     0.210 HD
ENDBRANCH   2  21
TORSDOF 9
ENDMDL
MODEL 18
REMARK VINA RESULT:    -5.763      2.574      6.017
REMARK INTER + INTRA:          -8.362
REMARK INTER:                  -7.342
REMARK INTRA:                  -1.020
REMARK UNBOUND:                -0.409
REMARK  9 active torsions:
REMARK  status: ('A' for Active; 'I' for Inactive)
REMARK    1  A    between atoms: C_1  and  C_16 
REMARK    2  A    between atoms: C_3  and  O_13 
REMARK    3  A    between atoms: C_4  and  O_9 
REMARK    4  A    between atoms: C_5  and  C_6 
REMARK    5  A    between atoms: C_6  and  O_17 
REMARK    6  A    between atoms: C_6  and  C_7 
REMARK    7  A    between atoms: C_7  and  O_19 
REMARK    8  A    between atoms: C_7  and  C_8 
REMARK    9  A    between atoms: C_8  and  O_21 
ROOT
HETATM    1  C   UNL     1     -17.738 -41.289  29.949  1.00  0.00     0.051 C 
HETATM    2  C   UNL     1     -18.460 -42.474  30.266  1.00  0.00     0.175 C 
HETATM    3  C   UNL     1     -19.920 -42.403  29.812  1.00  0.00     0.182 C 
HETATM    4  C   UNL     1     -20.560 -41.110  30.323  1.00  0.00     0.192 C 
HETATM    5  O   UNL     1     -19.777 -39.980  29.878  1.00  0.00    -0.334 OA
HETATM    6  C   UNL     1     -18.406 -40.067  29.789  1.00  0.00     0.144 C 
ENDROOT
BRANCH   4   7
HETATM    7  C   UNL     1     -21.986 -40.931  29.766  1.00  0.00     0.181 C 
BRANCH   7   8
HETATM    8  O   UNL     1     -22.167 -41.895  28.713  1.00  0.00    -0.390 OA
ATOM      9  HO  UNL     1     -23.071 -41.840  28.425  1.00  0.00     0.210 HD
ENDBRANCH   7   8
BRANCH   7  10
HETATM   10  C   UNL     1     -22.144 -39.532  29.183  1.00  0.00     0.173 C 
BRANCH  10  11
HETATM   11  O   UNL     1     -23.388 -38.930  29.572  1.00  0.00    -0.391 OA
ATOM     12  HO  UNL     1     -23.826 -39.430  30.250  1.00  0.00     0.210 HD
ENDBRANCH  10  11
BRANCH  10  13
HETATM   13  C   UNL     1     -22.072 -39.572  27.651  1.00  0.00     0.198 C 
BRANCH  13  14
HETATM   14  O   UNL     1     -20.699 -39.663  27.252  1.00  0.00    -0.398 OA
ATOM     15  HO  UNL     1     -20.474 -40.577  27.127  1.00  0.00     0.209 HD
ENDBRANCH  13  14
ENDBRANCH  10  13
ENDBRANCH   7  10
ENDBRANCH   4   7
BRANCH   3  16
HETATM   16  O   UNL     1     -20.661 -43.539  30.314  1.00  0.00    -0.390 OA
ATOM     17  HO  UNL     1     -21.414 -43.699  29.755  1.00  0.00     0.210 HD
ENDBRANCH   3  16
BRANCH   6  18
HETATM   18  C   UNL     1     -17.768 -38.831  29.547  1.00  0.00     0.233 C 
HETATM   19  O   UNL     1     -16.683 -38.519  30.103  1.00  0.00    -0.642 OA
HETATM   20  O   UNL     1     -18.313 -37.999  28.779  1.00  0.00    -0.642 OA
ENDBRANCH   6  18
BRANCH   2  21
HETATM   21  O   UNL     1     -17.840 -43.661  29.738  1.00  0.00    -0.389 OA
ATOM     22  HO  UNL     1     -18.338 -44.428  29.995  1.00  0.00     0.210 HD
ENDBRANCH   2  21
TORSDOF 9
ENDMDL
MODEL 19
REMARK VINA RESULT:    -5.741      6.220      8.701
REMARK INTER + INTRA:          -8.332
REMARK INTER:                  -7.318
REMARK INTRA:                  -1.015
REMARK UNBOUND:                -0.409
REMARK  9 active torsions:
REMARK  status: ('A' for Active; 'I' for Inactive)
REMARK    1  A    between atoms: C_1  and  C_16 
REMARK    2  A    between atoms: C_3  and  O_13 
REMARK    3  A    between atoms: C_4  and  O_9 
REMARK    4  A    between atoms: C_5  and  C_6 
REMARK    5  A    between atoms: C_6  and  O_17 
REMARK    6  A    between atoms: C_6  and  C_7 
REMARK    7  A    between atoms: C_7  and  O_19 
REMARK    8  A    between atoms: C_7  and  C_8 
REMARK    9  A    between atoms: C_8  and  O_21 
ROOT
HETATM    1  C   UNL     1     -20.658 -47.398  34.682  1.00  0.00     0.051 C 
HETATM    2  C   UNL     1     -20.468 -48.184  33.511  1.00  0.00     0.175 C 
HETATM    3  C   UNL     1     -20.886 -47.442  32.239  1.00  0.00     0.182 C 
HETATM    4  C   UNL     1     -22.298 -46.879  32.408  1.00  0.00     0.192 C 
HETATM    5  O   UNL     1     -22.345 -46.045  33.587  1.00  0.00    -0.334 OA
HETATM    6  C   UNL     1     -21.608 -46.367  34.704  1.00  0.00     0.144 C 
ENDROOT
BRANCH   4   7
HETATM    7  C   UNL     1     -22.700 -46.000  31.206  1.00  0.00     0.181 C 
BRANCH   7   8
HETATM    8  O   UNL     1     -22.800 -46.857  30.054  1.00  0.00    -0.390 OA
ATOM      9  HO  UNL     1     -23.703 -47.145  29.988  1.00  0.00     0.210 HD
ENDBRANCH   7   8
BRANCH   7  10
HETATM   10  C   UNL     1     -21.625 -44.952  30.946  1.00  0.00     0.173 C 
BRANCH  10  11
HETATM   11  O   UNL     1     -22.033 -43.649  31.387  1.00  0.00    -0.391 OA
ATOM     12  HO  UNL     1     -22.976 -43.540  31.344  1.00  0.00     0.210 HD
ENDBRANCH  10  11
BRANCH  10  13
HETATM   13  C   UNL     1     -21.283 -44.885  29.452  1.00  0.00     0.198 C 
BRANCH  13  14
HETATM   14  O   UNL     1     -20.234 -45.819  29.171  1.00  0.00    -0.398 OA
ATOM     15  HO  UNL     1     -20.359 -46.171  28.298  1.00  0.00     0.209 HD
ENDBRANCH  13  14
ENDBRANCH  10  13
ENDBRANCH   7  10
ENDBRANCH   4   7
BRANCH   3  16
HETATM   16  O   UNL     1     -20.853 -48.332  31.100  1.00  0.00    -0.390 OA
ATOM     17  HO  UNL     1     -21.734 -48.447  30.762  1.00  0.00     0.210 HD
ENDBRANCH   3  16
BRANCH   6  18
HETATM   18  C   UNL     1     -21.916 -45.586  35.839  1.00  0.00     0.233 C 
HETATM   19  O   UNL     1     -22.904 -45.839  36.576  1.00  0.00    -0.642 OA
HETATM   20  O   UNL     1     -21.205 -44.585  36.106  1.00  0.00    -0.642 OA
ENDBRANCH   6  18
BRANCH   2  21
HETATM   21  O   UNL     1     -19.118 -48.665  33.377  1.00  0.00    -0.389 OA
ATOM     22  HO  UNL     1     -18.527 -47.936  33.232  1.00  0.00     0.210 HD
ENDBRANCH   2  21
TORSDOF 9
ENDMDL
MODEL 20
REMARK VINA RESULT:    -5.665      2.935      5.715
REMARK INTER + INTRA:          -8.227
REMARK INTER:                  -7.267
REMARK INTRA:                  -0.960
REMARK UNBOUND:                -0.409
REMARK  9 active torsions:
REMARK  status: ('A' for Active; 'I' for Inactive)
REMARK    1  A    between atoms: C_1  and  C_16 
REMARK    2  A    between atoms: C_3  and  O_13 
REMARK    3  A    between atoms: C_4  and  O_9 
REMARK    4  A    between atoms: C_5  and  C_6 
REMARK    5  A    between atoms: C_6  and  O_17 
REMARK    6  A    between atoms: C_6  and  C_7 
REMARK    7  A    between atoms: C_7  and  O_19 
REMARK    8  A    between atoms: C_7  and  C_8 
REMARK    9  A    between atoms: C_8  and  O_21 
ROOT
HETATM    1  C   UNL     1     -19.893 -38.316  28.024  1.00  0.00     0.051 C 
HETATM    2  C   UNL     1     -19.050 -38.561  29.144  1.00  0.00     0.175 C 
HETATM    3  C   UNL     1     -19.043 -40.035  29.556  1.00  0.00     0.182 C 
HETATM    4  C   UNL     1     -20.480 -40.535  29.717  1.00  0.00     0.192 C 
HETATM    5  O   UNL     1     -21.212 -40.295  28.494  1.00  0.00    -0.334 OA
HETATM    6  C   UNL     1     -20.968 -39.170  27.740  1.00  0.00     0.144 C 
ENDROOT
BRANCH   4   7
HETATM    7  C   UNL     1     -20.519 -42.052  29.988  1.00  0.00     0.181 C 
BRANCH   7   8
HETATM    8  O   UNL     1     -19.252 -42.600  29.583  1.00  0.00    -0.390 OA
ATOM      9  HO  UNL     1     -19.428 -43.354  29.032  1.00  0.00     0.210 HD
ENDBRANCH   7   8
BRANCH   7  10
HETATM   10  C   UNL     1     -21.621 -42.700  29.158  1.00  0.00     0.173 C 
BRANCH  10  11
HETATM   11  O   UNL     1     -22.926 -42.384  29.665  1.00  0.00    -0.391 OA
ATOM     12  HO  UNL     1     -23.608 -42.862  29.207  1.00  0.00     0.210 HD
ENDBRANCH  10  11
BRANCH  10  13
HETATM   13  C   UNL     1     -21.456 -44.225  29.133  1.00  0.00     0.198 C 
BRANCH  13  14
HETATM   14  O   UNL     1     -20.595 -44.583  28.046  1.00  0.00    -0.398 OA
ATOM     15  HO  UNL     1     -19.755 -44.155  28.162  1.00  0.00     0.209 HD
ENDBRANCH  13  14
ENDBRANCH  10  13
ENDBRANCH   7  10
ENDBRANCH   4   7
BRANCH   3  16
HETATM   16  O   UNL     1     -18.328 -40.209  30.800  1.00  0.00    -0.390 OA
ATOM     17  HO  UNL     1     -17.496 -39.752  30.756  1.00  0.00     0.210 HD
ENDBRANCH   3  16
BRANCH   6  18
HETATM   18  C   UNL     1     -21.898 -38.967  26.696  1.00  0.00     0.233 C 
HETATM   19  O   UNL     1     -23.122 -39.222  26.835  1.00  0.00    -0.642 OA
HETATM   20  O   UNL     1     -21.490 -38.551  25.584  1.00  0.00    -0.642 OA
ENDBRANCH   6  18
BRANCH   2  21
HETATM   21  O   UNL     1     -17.701 -38.103  28.936  1.00  0.00    -0.389 OA
ATOM     22  HO  UNL     1     -17.425 -38.302  28.049  1.00  0.00     0.210 HD
ENDBRANCH   2  21
TORSDOF 9
ENDMDL
