MODEL 1
REMARK VINA RESULT:    -7.041      0.000      0.000
REMARK INTER + INTRA:          -7.918
REMARK INTER:                  -8.070
REMARK INTRA:                   0.152
REMARK UNBOUND:                 0.152
REMARK  3 active torsions:
REMARK  status: ('A' for Active; 'I' for Inactive)
REMARK    1  A    between atoms: C_2  and  C_3 
REMARK    2  A    between atoms: C_3  and  C_4 
REMARK    3  A    between atoms: N_7  and  O_8 
ROOT
HETATM    1  C   UNL     1       9.124 141.525 101.672  1.00  0.00     0.255 C 
HETATM    2  C   UNL     1       8.347 142.553 101.021  1.00  0.00     0.099 C 
HETATM    3  C   UNL     1       9.312 143.163  99.999  1.00  0.00     0.120 C 
HETATM    4  C   UNL     1      10.553 142.688 100.529  1.00  0.00     0.251 C 
HETATM    5  N   UNL     1      10.397 141.718 101.427  1.00  0.00    -0.156 N 
HETATM    6  O   UNL     1      11.675 143.035 100.149  1.00  0.00    -0.271 OA
HETATM    7  O   UNL     1       8.726 140.684 102.478  1.00  0.00    -0.270 OA
ENDROOT
BRANCH   2   8
HETATM    8  C   UNL     1       6.962 142.135 100.713  1.00  0.00     0.128 C 
BRANCH   8   9
HETATM    9  C   UNL     1       6.318 142.791  99.502  1.00  0.00     0.173 C 
HETATM   10  O   UNL     1       5.270 143.403  99.804  1.00  0.00    -0.648 OA
HETATM   11  O   UNL     1       6.794 142.645  98.372  1.00  0.00    -0.648 OA
ENDBRANCH   8   9
ENDBRANCH   2   8
BRANCH   5  12
HETATM   12  O   UNL     1      11.371 140.981 102.090  1.00  0.00    -0.277 OA
ATOM     13  HO  UNL     1      12.259 140.933 101.755  1.00  0.00     0.245 HD
ENDBRANCH   5  12
TORSDOF 3
ENDMDL
MODEL 2
REMARK VINA RESULT:    -6.892      1.876      4.288
REMARK INTER + INTRA:          -7.747
REMARK INTER:                  -7.670
REMARK INTRA:                  -0.077
REMARK UNBOUND:                 0.152
REMARK  3 active torsions:
REMARK  status: ('A' for Active; 'I' for Inactive)
REMARK    1  A    between atoms: C_2  and  C_3 
REMARK    2  A    between atoms: C_3  and  C_4 
REMARK    3  A    between atoms: N_7  and  O_8 
ROOT
HETATM    1  C   UNL     1       7.402 142.038 100.728  1.00  0.00     0.255 C 
HETATM    2  C   UNL     1       8.769 141.719 100.390  1.00  0.00     0.099 C 
HETATM    3  C   UNL     1       9.200 142.853  99.455  1.00  0.00     0.120 C 
HETATM    4  C   UNL     1       7.914 143.365  99.091  1.00  0.00     0.251 C 
HETATM    5  N   UNL     1       6.938 142.923  99.880  1.00  0.00    -0.156 N 
HETATM    6  O   UNL     1       7.699 144.210  98.217  1.00  0.00    -0.271 OA
HETATM    7  O   UNL     1       6.686 141.477 101.557  1.00  0.00    -0.270 OA
ENDROOT
BRANCH   2   8
HETATM    8  C   UNL     1       9.562 141.242 101.544  1.00  0.00     0.128 C 
BRANCH   8   9
HETATM    9  C   UNL     1      10.887 140.572 101.214  1.00  0.00     0.173 C 
HETATM   10  O   UNL     1      11.687 140.621 102.174  1.00  0.00    -0.648 OA
HETATM   11  O   UNL     1      11.101 140.106 100.091  1.00  0.00    -0.648 OA
ENDBRANCH   8   9
ENDBRANCH   2   8
BRANCH   5  12
HETATM   12  O   UNL     1       5.589 143.261  99.868  1.00  0.00    -0.277 OA
ATOM     13  HO  UNL     1       5.313 144.164  99.763  1.00  0.00     0.245 HD
ENDBRANCH   5  12
TORSDOF 3
ENDMDL
MODEL 3
REMARK VINA RESULT:    -6.634      1.367      2.096
REMARK INTER + INTRA:          -7.452
REMARK INTER:                  -7.379
REMARK INTRA:                  -0.073
REMARK UNBOUND:                 0.152
REMARK  3 active torsions:
REMARK  status: ('A' for Active; 'I' for Inactive)
REMARK    1  A    between atoms: C_2  and  C_3 
REMARK    2  A    between atoms: C_3  and  C_4 
REMARK    3  A    between atoms: N_7  and  O_8 
ROOT
HETATM    1  C   UNL     1       8.409 142.124 101.407  1.00  0.00     0.255 C 
HETATM    2  C   UNL     1       9.152 142.984 100.516  1.00  0.00     0.099 C 
HETATM    3  C   UNL     1      10.337 142.124 100.066  1.00  0.00     0.120 C 
HETATM    4  C   UNL     1      10.301 141.116 101.080  1.00  0.00     0.251 C 
HETATM    5  N   UNL     1       9.163 141.117 101.772  1.00  0.00    -0.156 N 
HETATM    6  O   UNL     1      11.161 140.249 101.262  1.00  0.00    -0.271 OA
HETATM    7  O   UNL     1       7.308 142.343 101.912  1.00  0.00    -0.270 OA
ENDROOT
BRANCH   2   8
HETATM    8  C   UNL     1       8.291 143.763  99.599  1.00  0.00     0.128 C 
BRANCH   8   9
HETATM    9  C   UNL     1       7.436 142.955  98.635  1.00  0.00     0.173 C 
HETATM   10  O   UNL     1       8.065 142.648  97.599  1.00  0.00    -0.648 OA
HETATM   11  O   UNL     1       6.251 142.717  98.884  1.00  0.00    -0.648 OA
ENDBRANCH   8   9
ENDBRANCH   2   8
BRANCH   5  12
HETATM   12  O   UNL     1       8.754 140.244 102.773  1.00  0.00    -0.277 OA
ATOM     13  HO  UNL     1       8.108 139.570 102.598  1.00  0.00     0.245 HD
ENDBRANCH   5  12
TORSDOF 3
ENDMDL
MODEL 4
REMARK VINA RESULT:    -6.384      1.691      4.577
REMARK INTER + INTRA:          -7.166
REMARK INTER:                  -7.240
REMARK INTRA:                   0.075
REMARK UNBOUND:                 0.152
REMARK  3 active torsions:
REMARK  status: ('A' for Active; 'I' for Inactive)
REMARK    1  A    between atoms: C_2  and  C_3 
REMARK    2  A    between atoms: C_3  and  C_4 
REMARK    3  A    between atoms: N_7  and  O_8 
ROOT
HETATM    1  C   UNL     1       8.817 142.089  99.241  1.00  0.00     0.255 C 
HETATM    2  C   UNL     1       8.651 142.250 100.667  1.00  0.00     0.099 C 
HETATM    3  C   UNL     1       7.165 142.582 100.837  1.00  0.00     0.120 C 
HETATM    4  C   UNL     1       6.850 142.967  99.496  1.00  0.00     0.251 C 
HETATM    5  N   UNL     1       7.788 142.611  98.620  1.00  0.00    -0.156 N 
HETATM    6  O   UNL     1       5.790 143.480  99.127  1.00  0.00    -0.271 OA
HETATM    7  O   UNL     1       9.817 141.692  98.645  1.00  0.00    -0.270 OA
ENDROOT
BRANCH   2   8
HETATM    8  C   UNL     1       9.375 141.233 101.460  1.00  0.00     0.128 C 
BRANCH   8   9
HETATM    9  C   UNL     1      10.881 141.416 101.569  1.00  0.00     0.173 C 
HETATM   10  O   UNL     1      11.457 140.358 101.903  1.00  0.00    -0.648 OA
HETATM   11  O   UNL     1      11.400 142.522 101.393  1.00  0.00    -0.648 OA
ENDBRANCH   8   9
ENDBRANCH   2   8
BRANCH   5  12
HETATM   12  O   UNL     1       7.787 142.757  97.238  1.00  0.00    -0.277 OA
ATOM     13  HO  UNL     1       8.289 142.169  96.685  1.00  0.00     0.245 HD
ENDBRANCH   5  12
TORSDOF 3
ENDMDL
MODEL 5
REMARK VINA RESULT:    -6.091      1.497      2.307
REMARK INTER + INTRA:          -6.829
REMARK INTER:                  -6.872
REMARK INTRA:                   0.042
REMARK UNBOUND:                 0.152
REMARK  3 active torsions:
REMARK  status: ('A' for Active; 'I' for Inactive)
REMARK    1  A    between atoms: C_2  and  C_3 
REMARK    2  A    between atoms: C_3  and  C_4 
REMARK    3  A    between atoms: N_7  and  O_8 
ROOT
HETATM    1  C   UNL     1       9.367 141.789  99.627  1.00  0.00     0.255 C 
HETATM    2  C   UNL     1       8.451 141.866 100.741  1.00  0.00     0.099 C 
HETATM    3  C   UNL     1       9.314 141.523 101.960  1.00  0.00     0.120 C 
HETATM    4  C   UNL     1      10.425 140.908 101.302  1.00  0.00     0.251 C 
HETATM    5  N   UNL     1      10.445 141.139  99.991  1.00  0.00    -0.156 N 
HETATM    6  O   UNL     1      11.348 140.309 101.862  1.00  0.00    -0.271 OA
HETATM    7  O   UNL     1       9.152 142.109  98.458  1.00  0.00    -0.270 OA
ENDROOT
BRANCH   2   8
HETATM    8  C   UNL     1       7.534 143.023 100.667  1.00  0.00     0.128 C 
BRANCH   8   9
HETATM    9  C   UNL     1       6.367 142.892  99.701  1.00  0.00     0.173 C 
HETATM   10  O   UNL     1       6.438 143.720  98.766  1.00  0.00    -0.648 OA
HETATM   11  O   UNL     1       5.459 142.081  99.908  1.00  0.00    -0.648 OA
ENDBRANCH   8   9
ENDBRANCH   2   8
BRANCH   5  12
HETATM   12  O   UNL     1      11.402 140.762  99.056  1.00  0.00    -0.277 OA
ATOM     13  HO  UNL     1      12.313 141.009  99.164  1.00  0.00     0.245 HD
ENDBRANCH   5  12
TORSDOF 3
ENDMDL
MODEL 6
REMARK VINA RESULT:    -5.944      1.097      2.472
REMARK INTER + INTRA:          -6.661
REMARK INTER:                  -6.540
REMARK INTRA:                  -0.121
REMARK UNBOUND:                 0.152
REMARK  3 active torsions:
REMARK  status: ('A' for Active; 'I' for Inactive)
REMARK    1  A    between atoms: C_2  and  C_3 
REMARK    2  A    between atoms: C_3  and  C_4 
REMARK    3  A    between atoms: N_7  and  O_8 
ROOT
HETATM    1  C   UNL     1      10.196 142.015 100.792  1.00  0.00     0.255 C 
HETATM    2  C   UNL     1       8.820 142.180 100.387  1.00  0.00     0.099 C 
HETATM    3  C   UNL     1       8.019 141.471 101.484  1.00  0.00     0.120 C 
HETATM    4  C   UNL     1       9.059 140.681 102.068  1.00  0.00     0.251 C 
HETATM    5  N   UNL     1      10.276 141.068 101.693  1.00  0.00    -0.156 N 
HETATM    6  O   UNL     1       8.899 139.797 102.915  1.00  0.00    -0.271 OA
HETATM    7  O   UNL     1      11.192 142.530 100.283  1.00  0.00    -0.270 OA
ENDROOT
BRANCH   2   8
HETATM    8  C   UNL     1       8.517 143.534  99.876  1.00  0.00     0.128 C 
BRANCH   8   9
HETATM    9  C   UNL     1       7.636 143.601  98.638  1.00  0.00     0.173 C 
HETATM   10  O   UNL     1       6.434 143.388  98.907  1.00  0.00    -0.648 OA
HETATM   11  O   UNL     1       8.126 143.788  97.520  1.00  0.00    -0.648 OA
ENDBRANCH   8   9
ENDBRANCH   2   8
BRANCH   5  12
HETATM   12  O   UNL     1      11.510 140.583 102.111  1.00  0.00    -0.277 OA
ATOM     13  HO  UNL     1      11.897 139.817 101.703  1.00  0.00     0.245 HD
ENDBRANCH   5  12
TORSDOF 3
ENDMDL
MODEL 7
REMARK VINA RESULT:    -5.891      1.825      4.422
REMARK INTER + INTRA:          -6.600
REMARK INTER:                  -6.449
REMARK INTRA:                  -0.150
REMARK UNBOUND:                 0.152
REMARK  3 active torsions:
REMARK  status: ('A' for Active; 'I' for Inactive)
REMARK    1  A    between atoms: C_2  and  C_3 
REMARK    2  A    between atoms: C_3  and  C_4 
REMARK    3  A    between atoms: N_7  and  O_8 
ROOT
HETATM    1  C   UNL     1       8.142 142.656  99.977  1.00  0.00     0.255 C 
HETATM    2  C   UNL     1       9.274 142.564 100.869  1.00  0.00     0.099 C 
HETATM    3  C   UNL     1       8.814 141.593 101.961  1.00  0.00     0.120 C 
HETATM    4  C   UNL     1       7.401 141.640 101.744  1.00  0.00     0.251 C 
HETATM    5  N   UNL     1       7.073 142.195 100.579  1.00  0.00    -0.156 N 
HETATM    6  O   UNL     1       6.545 141.138 102.478  1.00  0.00    -0.271 OA
HETATM    7  O   UNL     1       8.094 143.223  98.886  1.00  0.00    -0.270 OA
ENDROOT
BRANCH   2   8
HETATM    8  C   UNL     1      10.571 142.472 100.164  1.00  0.00     0.128 C 
BRANCH   8   9
HETATM    9  C   UNL     1      10.938 141.103  99.613  1.00  0.00     0.173 C 
HETATM   10  O   UNL     1      10.655 140.997  98.399  1.00  0.00    -0.648 OA
HETATM   11  O   UNL     1      11.402 140.227 100.347  1.00  0.00    -0.648 OA
ENDBRANCH   8   9
ENDBRANCH   2   8
BRANCH   5  12
HETATM   12  O   UNL     1       5.814 142.343 100.009  1.00  0.00    -0.277 OA
ATOM     13  HO  UNL     1       5.209 143.002 100.328  1.00  0.00     0.245 HD
ENDBRANCH   5  12
TORSDOF 3
ENDMDL
MODEL 8
REMARK VINA RESULT:    -5.375      1.557      4.025
REMARK INTER + INTRA:          -6.009
REMARK INTER:                  -6.043
REMARK INTRA:                   0.034
REMARK UNBOUND:                 0.152
REMARK  3 active torsions:
REMARK  status: ('A' for Active; 'I' for Inactive)
REMARK    1  A    between atoms: C_2  and  C_3 
REMARK    2  A    between atoms: C_3  and  C_4 
REMARK    3  A    between atoms: N_7  and  O_8 
ROOT
HETATM    1  C   UNL     1       8.572 141.515 101.133  1.00  0.00     0.255 C 
HETATM    2  C   UNL     1       9.037 141.880  99.815  1.00  0.00     0.099 C 
HETATM    3  C   UNL     1       7.892 142.713  99.231  1.00  0.00     0.120 C 
HETATM    4  C   UNL     1       6.837 142.325 100.116  1.00  0.00     0.251 C 
HETATM    5  N   UNL     1       7.278 141.705 101.209  1.00  0.00    -0.156 N 
HETATM    6  O   UNL     1       5.643 142.608  99.977  1.00  0.00    -0.271 OA
HETATM    7  O   UNL     1       9.210 140.950 102.021  1.00  0.00    -0.270 OA
ENDROOT
BRANCH   2   8
HETATM    8  C   UNL     1      10.460 142.280  99.785  1.00  0.00     0.128 C 
BRANCH   8   9
HETATM    9  C   UNL     1      10.893 143.290 100.837  1.00  0.00     0.173 C 
HETATM   10  O   UNL     1      11.803 142.841 101.569  1.00  0.00    -0.648 OA
HETATM   11  O   UNL     1      10.330 144.384 100.938  1.00  0.00    -0.648 OA
ENDBRANCH   8   9
ENDBRANCH   2   8
BRANCH   5  12
HETATM   12  O   UNL     1       6.553 141.256 102.306  1.00  0.00    -0.277 OA
ATOM     13  HO  UNL     1       6.790 140.450 102.750  1.00  0.00     0.245 HD
ENDBRANCH   5  12
TORSDOF 3
ENDMDL
MODEL 9
REMARK VINA RESULT:    -5.007      1.720      3.234
REMARK INTER + INTRA:          -5.587
REMARK INTER:                  -5.558
REMARK INTRA:                  -0.029
REMARK UNBOUND:                 0.152
REMARK  3 active torsions:
REMARK  status: ('A' for Active; 'I' for Inactive)
REMARK    1  A    between atoms: C_2  and  C_3 
REMARK    2  A    between atoms: C_3  and  C_4 
REMARK    3  A    between atoms: N_7  and  O_8 
ROOT
HETATM    1  C   UNL     1       9.531 141.901 100.566  1.00  0.00     0.255 C 
HETATM    2  C   UNL     1       8.433 142.651 101.130  1.00  0.00     0.099 C 
HETATM    3  C   UNL     1       7.426 142.762  99.981  1.00  0.00     0.120 C 
HETATM    4  C   UNL     1       8.282 142.447  98.880  1.00  0.00     0.251 C 
HETATM    5  N   UNL     1       9.437 141.905  99.259  1.00  0.00    -0.156 N 
HETATM    6  O   UNL     1       7.983 142.550  97.686  1.00  0.00    -0.271 OA
HETATM    7  O   UNL     1      10.516 141.459 101.156  1.00  0.00    -0.270 OA
ENDROOT
BRANCH   2   8
HETATM    8  C   UNL     1       8.087 142.237 102.507  1.00  0.00     0.128 C 
BRANCH   8   9
HETATM    9  C   UNL     1       7.604 140.804 102.673  1.00  0.00     0.173 C 
HETATM   10  O   UNL     1       6.357 140.723 102.620  1.00  0.00    -0.648 OA
HETATM   11  O   UNL     1       8.400 139.887 102.891  1.00  0.00    -0.648 OA
ENDBRANCH   8   9
ENDBRANCH   2   8
BRANCH   5  12
HETATM   12  O   UNL     1      10.469 141.415  98.467  1.00  0.00    -0.277 OA
ATOM     13  HO  UNL     1      11.374 141.637  98.653  1.00  0.00     0.245 HD
ENDBRANCH   5  12
TORSDOF 3
ENDMDL
MODEL 10
REMARK VINA RESULT:    -5.002      7.757      9.208
REMARK INTER + INTRA:          -5.581
REMARK INTER:                  -5.438
REMARK INTRA:                  -0.143
REMARK UNBOUND:                 0.152
REMARK  3 active torsions:
REMARK  status: ('A' for Active; 'I' for Inactive)
REMARK    1  A    between atoms: C_2  and  C_3 
REMARK    2  A    between atoms: C_3  and  C_4 
REMARK    3  A    between atoms: N_7  and  O_8 
ROOT
HETATM    1  C   UNL     1       0.194 139.551 103.956  1.00  0.00     0.255 C 
HETATM    2  C   UNL     1       0.249 139.905 102.558  1.00  0.00     0.099 C 
HETATM    3  C   UNL     1       1.703 139.632 102.158  1.00  0.00     0.120 C 
HETATM    4  C   UNL     1       2.303 139.588 103.456  1.00  0.00     0.251 C 
HETATM    5  N   UNL     1       1.411 139.479 104.437  1.00  0.00    -0.156 N 
HETATM    6  O   UNL     1       3.516 139.544 103.684  1.00  0.00    -0.271 OA
HETATM    7  O   UNL     1      -0.805 139.485 104.672  1.00  0.00    -0.270 OA
ENDROOT
BRANCH   2   8
HETATM    8  C   UNL     1      -0.928 139.444 101.789  1.00  0.00     0.128 C 
BRANCH   8   9
HETATM    9  C   UNL     1      -1.796 140.533 101.177  1.00  0.00     0.173 C 
HETATM   10  O   UNL     1      -2.918 140.099 100.835  1.00  0.00    -0.648 OA
HETATM   11  O   UNL     1      -1.359 141.676 101.013  1.00  0.00    -0.648 OA
ENDBRANCH   8   9
ENDBRANCH   2   8
BRANCH   5  12
HETATM   12  O   UNL     1       1.632 139.339 105.802  1.00  0.00    -0.277 OA
ATOM     13  HO  UNL     1       2.479 139.065 106.134  1.00  0.00     0.245 HD
ENDBRANCH   5  12
TORSDOF 3
ENDMDL
MODEL 11
REMARK VINA RESULT:    -4.997      6.251      7.585
REMARK INTER + INTRA:          -5.576
REMARK INTER:                  -5.480
REMARK INTRA:                  -0.095
REMARK UNBOUND:                 0.152
REMARK  3 active torsions:
REMARK  status: ('A' for Active; 'I' for Inactive)
REMARK    1  A    between atoms: C_2  and  C_3 
REMARK    2  A    between atoms: C_3  and  C_4 
REMARK    3  A    between atoms: N_7  and  O_8 
ROOT
HETATM    1  C   UNL     1       6.689 137.955 106.821  1.00  0.00     0.255 C 
HETATM    2  C   UNL     1       5.734 138.403 105.835  1.00  0.00     0.099 C 
HETATM    3  C   UNL     1       4.988 139.548 106.528  1.00  0.00     0.120 C 
HETATM    4  C   UNL     1       5.337 139.273 107.888  1.00  0.00     0.251 C 
HETATM    5  N   UNL     1       6.346 138.412 108.000  1.00  0.00    -0.156 N 
HETATM    6  O   UNL     1       4.855 139.829 108.879  1.00  0.00    -0.271 OA
HETATM    7  O   UNL     1       7.594 137.135 106.667  1.00  0.00    -0.270 OA
ENDROOT
BRANCH   2   8
HETATM    8  C   UNL     1       6.295 138.480 104.469  1.00  0.00     0.128 C 
BRANCH   8   9
HETATM    9  C   UNL     1       5.609 139.449 103.517  1.00  0.00     0.173 C 
HETATM   10  O   UNL     1       6.367 140.384 103.178  1.00  0.00    -0.648 OA
HETATM   11  O   UNL     1       4.424 139.301 103.205  1.00  0.00    -0.648 OA
ENDBRANCH   8   9
ENDBRANCH   2   8
BRANCH   5  12
HETATM   12  O   UNL     1       6.991 137.973 109.151  1.00  0.00    -0.277 OA
ATOM     13  HO  UNL     1       7.539 137.197 109.137  1.00  0.00     0.245 HD
ENDBRANCH   5  12
TORSDOF 3
ENDMDL
MODEL 12
REMARK VINA RESULT:    -4.954      6.079      7.321
REMARK INTER + INTRA:          -5.526
REMARK INTER:                  -5.375
REMARK INTRA:                  -0.152
REMARK UNBOUND:                 0.152
REMARK  3 active torsions:
REMARK  status: ('A' for Active; 'I' for Inactive)
REMARK    1  A    between atoms: C_2  and  C_3 
REMARK    2  A    between atoms: C_3  and  C_4 
REMARK    3  A    between atoms: N_7  and  O_8 
ROOT
HETATM    1  C   UNL     1       6.227 138.322 106.839  1.00  0.00     0.255 C 
HETATM    2  C   UNL     1       6.707 138.148 105.489  1.00  0.00     0.099 C 
HETATM    3  C   UNL     1       7.834 137.118 105.621  1.00  0.00     0.120 C 
HETATM    4  C   UNL     1       8.079 137.210 107.027  1.00  0.00     0.251 C 
HETATM    5  N   UNL     1       7.110 137.846 107.682  1.00  0.00    -0.156 N 
HETATM    6  O   UNL     1       9.018 136.680 107.628  1.00  0.00    -0.271 OA
HETATM    7  O   UNL     1       5.240 138.959 107.206  1.00  0.00    -0.270 OA
ENDROOT
BRANCH   2   8
HETATM    8  C   UNL     1       5.623 138.074 104.485  1.00  0.00     0.128 C 
BRANCH   8   9
HETATM    9  C   UNL     1       5.315 139.362 103.737  1.00  0.00     0.173 C 
HETATM   10  O   UNL     1       4.084 139.545 103.610  1.00  0.00    -0.648 OA
HETATM   11  O   UNL     1       6.222 140.067 103.285  1.00  0.00    -0.648 OA
ENDBRANCH   8   9
ENDBRANCH   2   8
BRANCH   5  12
HETATM   12  O   UNL     1       6.978 138.058 109.049  1.00  0.00    -0.277 OA
ATOM     13  HO  UNL     1       7.742 138.193 109.598  1.00  0.00     0.245 HD
ENDBRANCH   5  12
TORSDOF 3
ENDMDL
MODEL 13
REMARK VINA RESULT:    -4.944      6.800      9.029
REMARK INTER + INTRA:          -5.514
REMARK INTER:                  -5.386
REMARK INTRA:                  -0.128
REMARK UNBOUND:                 0.152
REMARK  3 active torsions:
REMARK  status: ('A' for Active; 'I' for Inactive)
REMARK    1  A    between atoms: C_2  and  C_3 
REMARK    2  A    between atoms: C_3  and  C_4 
REMARK    3  A    between atoms: N_7  and  O_8 
ROOT
HETATM    1  C   UNL     1       1.767 139.815 103.325  1.00  0.00     0.255 C 
HETATM    2  C   UNL     1       2.779 139.387 104.263  1.00  0.00     0.099 C 
HETATM    3  C   UNL     1       2.000 138.606 105.326  1.00  0.00     0.120 C 
HETATM    4  C   UNL     1       0.679 139.080 105.051  1.00  0.00     0.251 C 
HETATM    5  N   UNL     1       0.585 139.703 103.878  1.00  0.00    -0.156 N 
HETATM    6  O   UNL     1      -0.320 138.864 105.744  1.00  0.00    -0.271 OA
HETATM    7  O   UNL     1       1.940 140.365 102.238  1.00  0.00    -0.270 OA
ENDROOT
BRANCH   2   8
HETATM    8  C   UNL     1       4.015 138.902 103.611  1.00  0.00     0.128 C 
BRANCH   8   9
HETATM    9  C   UNL     1       5.319 139.494 104.124  1.00  0.00     0.173 C 
HETATM   10  O   UNL     1       5.969 140.052 103.214  1.00  0.00    -0.648 OA
HETATM   11  O   UNL     1       5.660 139.351 105.302  1.00  0.00    -0.648 OA
ENDBRANCH   8   9
ENDBRANCH   2   8
BRANCH   5  12
HETATM   12  O   UNL     1      -0.545 140.224 103.258  1.00  0.00    -0.277 OA
ATOM     13  HO  UNL     1      -0.469 140.765 102.481  1.00  0.00     0.245 HD
ENDBRANCH   5  12
TORSDOF 3
ENDMDL
MODEL 14
REMARK VINA RESULT:    -4.866      6.069      7.363
REMARK INTER + INTRA:          -5.426
REMARK INTER:                  -5.288
REMARK INTRA:                  -0.137
REMARK UNBOUND:                 0.152
REMARK  3 active torsions:
REMARK  status: ('A' for Active; 'I' for Inactive)
REMARK    1  A    between atoms: C_2  and  C_3 
REMARK    2  A    between atoms: C_3  and  C_4 
REMARK    3  A    between atoms: N_7  and  O_8 
ROOT
HETATM    1  C   UNL     1       7.819 137.556 105.722  1.00  0.00     0.255 C 
HETATM    2  C   UNL     1       6.450 137.985 105.559  1.00  0.00     0.099 C 
HETATM    3  C   UNL     1       6.031 138.443 106.959  1.00  0.00     0.120 C 
HETATM    4  C   UNL     1       7.053 137.811 107.735  1.00  0.00     0.251 C 
HETATM    5  N   UNL     1       8.074 137.381 106.995  1.00  0.00    -0.156 N 
HETATM    6  O   UNL     1       7.081 137.743 108.967  1.00  0.00    -0.271 OA
HETATM    7  O   UNL     1       8.610 137.227 104.838  1.00  0.00    -0.270 OA
ENDROOT
BRANCH   2   8
HETATM    8  C   UNL     1       6.223 138.765 104.323  1.00  0.00     0.128 C 
BRANCH   8   9
HETATM    9  C   UNL     1       4.910 138.506 103.600  1.00  0.00     0.173 C 
HETATM   10  O   UNL     1       4.525 137.324 103.739  1.00  0.00    -0.648 OA
HETATM   11  O   UNL     1       4.373 139.388 102.925  1.00  0.00    -0.648 OA
ENDBRANCH   8   9
ENDBRANCH   2   8
BRANCH   5  12
HETATM   12  O   UNL     1       9.261 136.790 107.411  1.00  0.00    -0.277 OA
ATOM     13  HO  UNL     1       9.373 136.499 108.309  1.00  0.00     0.245 HD
ENDBRANCH   5  12
TORSDOF 3
ENDMDL
MODEL 15
REMARK VINA RESULT:    -4.856      6.432      7.793
REMARK INTER + INTRA:          -5.414
REMARK INTER:                  -5.333
REMARK INTRA:                  -0.081
REMARK UNBOUND:                 0.152
REMARK  3 active torsions:
REMARK  status: ('A' for Active; 'I' for Inactive)
REMARK    1  A    between atoms: C_2  and  C_3 
REMARK    2  A    between atoms: C_3  and  C_4 
REMARK    3  A    between atoms: N_7  and  O_8 
ROOT
HETATM    1  C   UNL     1       5.142 139.040 106.801  1.00  0.00     0.255 C 
HETATM    2  C   UNL     1       6.184 138.568 105.919  1.00  0.00     0.099 C 
HETATM    3  C   UNL     1       7.024 137.636 106.798  1.00  0.00     0.120 C 
HETATM    4  C   UNL     1       6.587 138.065 108.090  1.00  0.00     0.251 C 
HETATM    5  N   UNL     1       5.482 138.806 108.044  1.00  0.00    -0.156 N 
HETATM    6  O   UNL     1       7.084 137.722 109.167  1.00  0.00    -0.271 OA
HETATM    7  O   UNL     1       4.157 139.713 106.500  1.00  0.00    -0.270 OA
ENDROOT
BRANCH   2   8
HETATM    8  C   UNL     1       5.697 138.224 104.566  1.00  0.00     0.128 C 
BRANCH   8   9
HETATM    9  C   UNL     1       5.567 139.381 103.588  1.00  0.00     0.173 C 
HETATM   10  O   UNL     1       4.414 139.462 103.110  1.00  0.00    -0.648 OA
HETATM   11  O   UNL     1       6.541 140.082 103.300  1.00  0.00    -0.648 OA
ENDBRANCH   8   9
ENDBRANCH   2   8
BRANCH   5  12
HETATM   12  O   UNL     1       4.741 139.330 109.097  1.00  0.00    -0.277 OA
ATOM     13  HO  UNL     1       5.153 139.534 109.929  1.00  0.00     0.245 HD
ENDBRANCH   5  12
TORSDOF 3
ENDMDL
MODEL 16
REMARK VINA RESULT:    -4.718      7.178      8.145
REMARK INTER + INTRA:          -5.255
REMARK INTER:                  -5.102
REMARK INTRA:                  -0.153
REMARK UNBOUND:                 0.152
REMARK  3 active torsions:
REMARK  status: ('A' for Active; 'I' for Inactive)
REMARK    1  A    between atoms: C_2  and  C_3 
REMARK    2  A    between atoms: C_3  and  C_4 
REMARK    3  A    between atoms: N_7  and  O_8 
ROOT
HETATM    1  C   UNL     1       7.210 137.730 107.794  1.00  0.00     0.255 C 
HETATM    2  C   UNL     1       6.262 138.382 106.921  1.00  0.00     0.099 C 
HETATM    3  C   UNL     1       6.649 137.900 105.519  1.00  0.00     0.120 C 
HETATM    4  C   UNL     1       7.970 137.422 105.786  1.00  0.00     0.251 C 
HETATM    5  N   UNL     1       8.219 137.283 107.087  1.00  0.00    -0.156 N 
HETATM    6  O   UNL     1       8.789 137.062 104.935  1.00  0.00    -0.271 OA
HETATM    7  O   UNL     1       7.208 137.717 109.024  1.00  0.00    -0.270 OA
ENDROOT
BRANCH   2   8
HETATM    8  C   UNL     1       4.881 138.382 107.451  1.00  0.00     0.128 C 
BRANCH   8   9
HETATM    9  C   UNL     1       4.254 139.748 107.683  1.00  0.00     0.173 C 
HETATM   10  O   UNL     1       4.820 140.641 107.015  1.00  0.00    -0.648 OA
HETATM   11  O   UNL     1       3.336 139.896 108.495  1.00  0.00    -0.648 OA
ENDBRANCH   8   9
ENDBRANCH   2   8
BRANCH   5  12
HETATM   12  O   UNL     1       9.358 136.782 107.706  1.00  0.00    -0.277 OA
ATOM     13  HO  UNL     1       9.292 136.145 108.408  1.00  0.00     0.245 HD
ENDBRANCH   5  12
TORSDOF 3
ENDMDL
MODEL 17
REMARK VINA RESULT:    -4.680      7.280      9.131
REMARK INTER + INTRA:          -5.212
REMARK INTER:                  -5.062
REMARK INTRA:                  -0.150
REMARK UNBOUND:                 0.152
REMARK  3 active torsions:
REMARK  status: ('A' for Active; 'I' for Inactive)
REMARK    1  A    between atoms: C_2  and  C_3 
REMARK    2  A    between atoms: C_3  and  C_4 
REMARK    3  A    between atoms: N_7  and  O_8 
ROOT
HETATM    1  C   UNL     1       3.064 139.545 104.242  1.00  0.00     0.255 C 
HETATM    2  C   UNL     1       2.960 139.141 105.625  1.00  0.00     0.099 C 
HETATM    3  C   UNL     1       1.505 138.687 105.775  1.00  0.00     0.120 C 
HETATM    4  C   UNL     1       0.942 139.298 104.611  1.00  0.00     0.251 C 
HETATM    5  N   UNL     1       1.864 139.712 103.744  1.00  0.00    -0.156 N 
HETATM    6  O   UNL     1      -0.262 139.362 104.345  1.00  0.00    -0.271 OA
HETATM    7  O   UNL     1       4.084 139.863 103.631  1.00  0.00    -0.270 OA
ENDROOT
BRANCH   2   8
HETATM    8  C   UNL     1       4.129 138.369 106.100  1.00  0.00     0.128 C 
BRANCH   8   9
HETATM    9  C   UNL     1       5.208 139.162 106.820  1.00  0.00     0.173 C 
HETATM   10  O   UNL     1       6.217 138.464 107.064  1.00  0.00    -0.648 OA
HETATM   11  O   UNL     1       5.020 140.338 107.147  1.00  0.00    -0.648 OA
ENDBRANCH   8   9
ENDBRANCH   2   8
BRANCH   5  12
HETATM   12  O   UNL     1       1.685 140.280 102.489  1.00  0.00    -0.277 OA
ATOM     13  HO  UNL     1       2.365 140.813 102.092  1.00  0.00     0.245 HD
ENDBRANCH   5  12
TORSDOF 3
ENDMDL
MODEL 18
REMARK VINA RESULT:    -4.680      6.554      8.460
REMARK INTER + INTRA:          -5.212
REMARK INTER:                  -5.051
REMARK INTRA:                  -0.161
REMARK UNBOUND:                 0.152
REMARK  3 active torsions:
REMARK  status: ('A' for Active; 'I' for Inactive)
REMARK    1  A    between atoms: C_2  and  C_3 
REMARK    2  A    between atoms: C_3  and  C_4 
REMARK    3  A    between atoms: N_7  and  O_8 
ROOT
HETATM    1  C   UNL     1       4.773 137.414 105.415  1.00  0.00     0.255 C 
HETATM    2  C   UNL     1       5.635 138.469 105.893  1.00  0.00     0.099 C 
HETATM    3  C   UNL     1       5.294 139.666 105.000  1.00  0.00     0.120 C 
HETATM    4  C   UNL     1       4.637 138.985 103.927  1.00  0.00     0.251 C 
HETATM    5  N   UNL     1       4.307 137.732 104.232  1.00  0.00    -0.156 N 
HETATM    6  O   UNL     1       4.297 139.495 102.855  1.00  0.00    -0.271 OA
HETATM    7  O   UNL     1       4.605 136.301 105.914  1.00  0.00    -0.270 OA
ENDROOT
BRANCH   2   8
HETATM    8  C   UNL     1       5.727 138.528 107.368  1.00  0.00     0.128 C 
BRANCH   8   9
HETATM    9  C   UNL     1       6.952 137.874 107.989  1.00  0.00     0.173 C 
HETATM   10  O   UNL     1       6.990 138.036 109.228  1.00  0.00    -0.648 OA
HETATM   11  O   UNL     1       7.800 137.317 107.285  1.00  0.00    -0.648 OA
ENDBRANCH   8   9
ENDBRANCH   2   8
BRANCH   5  12
HETATM   12  O   UNL     1       3.604 136.807 103.469  1.00  0.00    -0.277 OA
ATOM     13  HO  UNL     1       3.804 136.681 102.548  1.00  0.00     0.245 HD
ENDBRANCH   5  12
TORSDOF 3
ENDMDL
MODEL 19
REMARK VINA RESULT:    -4.643      9.123     11.405
REMARK INTER + INTRA:          -5.170
REMARK INTER:                  -5.171
REMARK INTRA:                   0.001
REMARK UNBOUND:                 0.152
REMARK  3 active torsions:
REMARK  status: ('A' for Active; 'I' for Inactive)
REMARK    1  A    between atoms: C_2  and  C_3 
REMARK    2  A    between atoms: C_3  and  C_4 
REMARK    3  A    between atoms: N_7  and  O_8 
ROOT
HETATM    1  C   UNL     1      -1.656 140.340 103.397  1.00  0.00     0.255 C 
HETATM    2  C   UNL     1      -0.813 139.422 102.668  1.00  0.00     0.099 C 
HETATM    3  C   UNL     1      -1.546 139.213 101.339  1.00  0.00     0.120 C 
HETATM    4  C   UNL     1      -2.845 139.687 101.705  1.00  0.00     0.251 C 
HETATM    5  N   UNL     1      -2.845 140.372 102.847  1.00  0.00    -0.156 N 
HETATM    6  O   UNL     1      -3.865 139.588 101.017  1.00  0.00    -0.271 OA
HETATM    7  O   UNL     1      -1.408 140.895 104.467  1.00  0.00    -0.270 OA
ENDROOT
BRANCH   2   8
HETATM    8  C   UNL     1       0.629 139.732 102.785  1.00  0.00     0.128 C 
BRANCH   8   9
HETATM    9  C   UNL     1       1.307 139.284 104.071  1.00  0.00     0.173 C 
HETATM   10  O   UNL     1       2.387 139.884 104.263  1.00  0.00    -0.648 OA
HETATM   11  O   UNL     1       0.822 138.386 104.765  1.00  0.00    -0.648 OA
ENDBRANCH   8   9
ENDBRANCH   2   8
BRANCH   5  12
HETATM   12  O   UNL     1      -3.900 141.032 103.465  1.00  0.00    -0.277 OA
ATOM     13  HO  UNL     1      -3.945 141.981 103.473  1.00  0.00     0.245 HD
ENDBRANCH   5  12
TORSDOF 3
ENDMDL
MODEL 20
REMARK VINA RESULT:    -4.621     11.266     12.144
REMARK INTER + INTRA:          -5.145
REMARK INTER:                  -5.004
REMARK INTRA:                  -0.141
REMARK UNBOUND:                 0.152
REMARK  3 active torsions:
REMARK  status: ('A' for Active; 'I' for Inactive)
REMARK    1  A    between atoms: C_2  and  C_3 
REMARK    2  A    between atoms: C_3  and  C_4 
REMARK    3  A    between atoms: N_7  and  O_8 
ROOT
HETATM    1  C   UNL     1      -1.981 140.301 103.367  1.00  0.00     0.255 C 
HETATM    2  C   UNL     1      -2.810 141.483 103.334  1.00  0.00     0.099 C 
HETATM    3  C   UNL     1      -3.810 141.208 102.206  1.00  0.00     0.120 C 
HETATM    4  C   UNL     1      -3.125 140.149 101.531  1.00  0.00     0.251 C 
HETATM    5  N   UNL     1      -2.137 139.626 102.254  1.00  0.00    -0.156 N 
HETATM    6  O   UNL     1      -3.447 139.666 100.442  1.00  0.00    -0.271 OA
HETATM    7  O   UNL     1      -1.120 140.015 104.198  1.00  0.00    -0.270 OA
ENDROOT
BRANCH   2   8
HETATM    8  C   UNL     1      -3.183 141.975 104.678  1.00  0.00     0.128 C 
BRANCH   8   9
HETATM    9  C   UNL     1      -2.837 143.424 104.980  1.00  0.00     0.173 C 
HETATM   10  O   UNL     1      -1.883 143.519 105.784  1.00  0.00    -0.648 OA
HETATM   11  O   UNL     1      -3.499 144.349 104.500  1.00  0.00    -0.648 OA
ENDBRANCH   8   9
ENDBRANCH   2   8
BRANCH   5  12
HETATM   12  O   UNL     1      -1.314 138.549 101.952  1.00  0.00    -0.277 OA
ATOM     13  HO  UNL     1      -0.373 138.659 101.879  1.00  0.00     0.245 HD
ENDBRANCH   5  12
TORSDOF 3
ENDMDL
