REMARK  14 active torsions:
REMARK  status: ('A' for Active; 'I' for Inactive)
REMARK    1  A    between atoms: C_1  and  O_2 
REMARK    2  A    between atoms: O_2  and  C_8 
REMARK    3  A    between atoms: C_4  and  C_5 
REMARK    4  A    between atoms: C_6  and  N_25 
REMARK    5  A    between atoms: C_7  and  N_28 
REMARK    6  A    between atoms: C_8  and  C_9 
REMARK    7  A    between atoms: C_9  and  C_10 
REMARK    8  A    between atoms: C_10  and  O_29 
REMARK    9  A    between atoms: C_11  and  O_29 
REMARK   10  A    between atoms: C_15  and  C_16 
REMARK   11  A    between atoms: C_16  and  C_17 
REMARK   12  A    between atoms: C_17  and  C_18 
REMARK   13  A    between atoms: C_17  and  C_19 
REMARK   14  A    between atoms: C_19  and  O_31 
ROOT
HETATM    1  C   UNL     1       0.218   2.048   0.296  1.00  0.00     0.178 C 
ENDROOT
BRANCH   1   2
HETATM    2  O   UNL     1       0.578   1.584   1.600  1.00  0.00    -0.345 OA
BRANCH   2   3
HETATM    3  C   UNL     1       1.904   1.325   1.971  1.00  0.00     0.136 A 
HETATM    4  C   UNL     1       2.313   0.007   2.251  1.00  0.00     0.063 A 
HETATM    5  N   UNL     1       3.617  -0.241   2.548  1.00  0.00    -0.193 N 
HETATM    6  C   UNL     1       4.536   0.757   2.582  1.00  0.00     0.677 A 
ATOM      7  HN  UNL     1       3.910  -1.197   2.749  1.00  0.00     0.184 HD
HETATM    8  N   UNL     1       4.152   2.040   2.357  1.00  0.00    -0.174 N 
HETATM    9  C   UNL     1       2.861   2.353   2.068  1.00  0.00     0.150 A 
ATOM     10  HN  UNL     1       4.847   2.785   2.406  1.00  0.00     0.186 HD
BRANCH   4  11
HETATM   11  C   UNL     1       1.334  -1.135   2.275  1.00  0.00     0.056 C 
HETATM   12  C   UNL     1       0.782  -1.339   3.683  1.00  0.00     0.011 C 
ENDBRANCH   4  11
BRANCH   6  13
HETATM   13  N   UNL     1       5.900   0.460   2.872  1.00  0.00    -0.234 N 
HETATM   14  H   UNL     1       6.613   1.224   2.902  1.00  0.00     0.174 HD
HETATM   15  H   UNL     1       6.205  -0.526   3.032  1.00  0.00     0.174 HD
ENDBRANCH   6  13
BRANCH   9  16
HETATM   16  N   UNL     1       2.493   3.728   1.935  1.00  0.00    -0.383 N 
HETATM   17  H   UNL     1       3.229   4.468   1.949  1.00  0.00     0.157 HD
HETATM   18  H   UNL     1       1.496   4.029   1.940  1.00  0.00     0.157 HD
ENDBRANCH   9  16
ENDBRANCH   2   3
ENDBRANCH   1   2
BRANCH   1  19
HETATM   19  C   UNL     1       0.484   0.967  -0.755  1.00  0.00     0.053 C 
BRANCH  19  20
HETATM   20  C   UNL     1       0.094   1.442  -2.159  1.00  0.00     0.178 C 
BRANCH  20  21
HETATM   21  O   UNL     1       0.387   0.434  -3.128  1.00  0.00    -0.351 OA
BRANCH  21  22
HETATM   22  C   UNL     1      -0.313  -0.775  -3.282  1.00  0.00     0.069 A 
HETATM   23  C   UNL     1       0.225  -1.748  -4.133  1.00  0.00     0.037 A 
HETATM   24  C   UNL     1      -0.414  -2.979  -4.297  1.00  0.00     0.003 A 
HETATM   25  C   UNL     1      -1.603  -3.248  -3.615  1.00  0.00     0.007 A 
HETATM   26  C   UNL     1      -2.171  -2.277  -2.777  1.00  0.00    -0.054 A 
HETATM   27  C   UNL     1      -1.525  -1.041  -2.616  1.00  0.00     0.044 A 
BRANCH  26  28
HETATM   28  C   UNL     1      -3.434  -2.580  -2.010  1.00  0.00     0.059 C 
BRANCH  28  29
HETATM   29  C   UNL     1      -3.141  -3.346  -0.701  1.00  0.00     0.152 C 
BRANCH  29  30
HETATM   30  C   UNL     1      -4.448  -3.757  -0.004  1.00  0.00     0.367 C 
HETATM   31  F   UNL     1      -5.201  -2.643   0.332  1.00  0.00    -0.213 F 
HETATM   32  F   UNL     1      -4.170  -4.481   1.145  1.00  0.00    -0.213 F 
ENDBRANCH  29  30
BRANCH  29  33
HETATM   33  C   UNL     1      -2.281  -2.533   0.234  1.00  0.00     0.149 C 
HETATM   34  O   UNL     1      -1.199  -3.012   0.667  1.00  0.00    -0.650 OA
BRANCH  33  35
HETATM   35  O   UNL     1      -2.681  -1.260   0.630  1.00  0.00    -0.776 OA
HETATM   36  H   UNL     1      -2.108  -0.706   1.255  1.00  0.00     0.167 HD
ENDBRANCH  33  35
ENDBRANCH  29  33
ENDBRANCH  28  29
ENDBRANCH  26  28
ENDBRANCH  21  22
ENDBRANCH  20  21
ENDBRANCH  19  20
ENDBRANCH   1  19
TORSDOF 14
