REMARK  6 active torsions:
REMARK  status: ('A' for Active; 'I' for Inactive)
REMARK    1  A    between atoms: C_1  and  C_2 
REMARK    2  A    between atoms: C_1  and  O_9 
REMARK    3  A    between atoms: C_2  and  C_3 
REMARK    4  A    between atoms: C_2  and  O_7 
REMARK    5  A    between atoms: C_3  and  C_4 
REMARK    6  A    between atoms: C_4  and  O_5 
ROOT
HETATM    1  C   UNL     1      30.874   8.096  10.526  1.00  0.00     0.143 C 
ENDROOT
BRANCH   1   2
HETATM    2  C   UNL     1      29.978   8.111   9.274  1.00  0.00     0.195 C 
BRANCH   2   3
HETATM    3  O   UNL     1      28.579   8.261   9.567  1.00  0.00    -0.398 OA
ATOM      4  HO  UNL     1      28.026   8.270   8.794  1.00  0.00     0.209 HD
ENDBRANCH   2   3
ENDBRANCH   1   2
BRANCH   1   5
HETATM    5  C   UNL     1      32.315   7.937  10.066  1.00  0.00     0.060 C 
BRANCH   5   6
HETATM    6  C   UNL     1      33.324   8.195  11.185  1.00  0.00     0.166 C 
BRANCH   6   7
HETATM    7  O   UNL     1      33.320   9.564  11.576  1.00  0.00    -0.401 OA
ATOM      8  HO  UNL     1      33.947   9.724  12.271  1.00  0.00     0.209 HD
ENDBRANCH   6   7
ENDBRANCH   5   6
ENDBRANCH   1   5
BRANCH   1   9
HETATM    9  O   UNL     1      30.498   6.994  11.378  1.00  0.00    -0.393 OA
ATOM     10  HO  UNL     1      31.051   6.985  12.151  1.00  0.00     0.210 HD
ENDBRANCH   1   9
TORSDOF 6
