REMARK  3 active torsions:
REMARK  status: ('A' for Active; 'I' for Inactive)
REMARK    1  A    between atoms: C_3  and  C_11 
REMARK    2  A    between atoms: C_8  and  O_9 
REMARK    3  A    between atoms: C_11  and  O_12 
ROOT
HETATM    1  N   UNL     1      31.128  59.445  50.629  1.00  0.00    -0.194 NA
HETATM    2  C   UNL     1      31.620  58.519  50.183  1.00  0.00     0.096 C 
HETATM    3  C   UNL     1      32.251  57.271  49.553  1.00  0.00     0.257 C 
ENDROOT
BRANCH   3   4
HETATM    4  C   UNL     1      33.113  57.738  48.387  1.00  0.00    -0.016 A 
HETATM    5  C   UNL     1      32.681  58.725  47.517  1.00  0.00     0.013 A 
HETATM    6  C   UNL     1      33.460  59.137  46.464  1.00  0.00     0.037 A 
HETATM    7  C   UNL     1      34.707  58.547  46.282  1.00  0.00     0.065 A 
HETATM    8  C   UNL     1      35.129  57.571  47.174  1.00  0.00     0.037 A 
HETATM    9  C   UNL     1      34.348  57.161  48.213  1.00  0.00     0.013 A 
BRANCH   7  10
HETATM   10  O   UNL     1      35.515  58.944  45.238  1.00  0.00    -0.361 OA
ATOM     11  HO  UNL     1      35.226  59.612  44.627  1.00  0.00     0.217 HD
ENDBRANCH   7  10
ENDBRANCH   3   4
BRANCH   3  12
HETATM   12  O   UNL     1      31.217  56.389  49.168  1.00  0.00    -0.377 OA
ATOM     13  HO  UNL     1      30.679  56.098  49.895  1.00  0.00     0.211 HD
ENDBRANCH   3  12
TORSDOF 3
