MODEL 1
REMARK VINA RESULT:    -5.705      0.000      0.000
REMARK INTER + INTRA:          -6.452
REMARK INTER:                  -6.372
REMARK INTRA:                  -0.081
REMARK UNBOUND:                -0.081
REMARK  2 active torsions:
REMARK  status: ('A' for Active; 'I' for Inactive)
REMARK    1  A    between atoms: C_2  and  O_4 
REMARK    2  A    between atoms: O_4  and  P_5 
ROOT
HETATM    1  O   UNL     1     -31.356  31.725  13.951  1.00  0.00    -0.190 OA
ENDROOT
BRANCH   1   2
HETATM    2  C   UNL     1     -31.235  30.352  14.069  1.00  0.00     0.382 C 
HETATM    3  N   UNL     1     -29.999  29.902  13.608  1.00  0.00    -0.032 NA
HETATM    4  O   UNL     1     -32.029  29.587  14.545  1.00  0.00    -0.242 OA
ENDBRANCH   1   2
BRANCH   1   5
HETATM    5  P   UNL     1     -30.565  32.689  15.012  1.00  0.00     0.430 P 
HETATM    6  O   UNL     1     -29.398  33.288  14.261  1.00  0.00    -0.616 OA
HETATM    7  O   UNL     1     -30.191  31.873  16.256  1.00  0.00    -0.616 OA
HETATM    8  O   UNL     1     -31.657  33.708  15.247  1.00  0.00    -0.616 OA
ENDBRANCH   1   5
TORSDOF 2
ENDMDL
MODEL 2
REMARK VINA RESULT:    -5.502      2.050      2.846
REMARK INTER + INTRA:          -6.226
REMARK INTER:                  -6.204
REMARK INTRA:                  -0.022
REMARK UNBOUND:                -0.081
REMARK  2 active torsions:
REMARK  status: ('A' for Active; 'I' for Inactive)
REMARK    1  A    between atoms: C_2  and  O_4 
REMARK    2  A    between atoms: O_4  and  P_5 
ROOT
HETATM    1  O   UNL     1     -29.423  33.119  14.185  1.00  0.00    -0.190 OA
ENDROOT
BRANCH   1   2
HETATM    2  C   UNL     1     -28.693  32.409  13.249  1.00  0.00     0.382 C 
HETATM    3  N   UNL     1     -28.314  33.211  12.174  1.00  0.00    -0.032 NA
HETATM    4  O   UNL     1     -28.348  31.261  13.310  1.00  0.00    -0.242 OA
ENDBRANCH   1   2
BRANCH   1   5
HETATM    5  P   UNL     1     -30.711  32.405  14.901  1.00  0.00     0.430 P 
HETATM    6  O   UNL     1     -30.187  31.721  16.143  1.00  0.00    -0.616 OA
HETATM    7  O   UNL     1     -31.405  31.482  13.891  1.00  0.00    -0.616 OA
HETATM    8  O   UNL     1     -31.497  33.651  15.241  1.00  0.00    -0.616 OA
ENDBRANCH   1   5
TORSDOF 2
ENDMDL
MODEL 3
REMARK VINA RESULT:    -5.475      1.148      1.836
REMARK INTER + INTRA:          -6.196
REMARK INTER:                  -6.121
REMARK INTRA:                  -0.075
REMARK UNBOUND:                -0.081
REMARK  2 active torsions:
REMARK  status: ('A' for Active; 'I' for Inactive)
REMARK    1  A    between atoms: C_2  and  O_4 
REMARK    2  A    between atoms: O_4  and  P_5 
ROOT
HETATM    1  O   UNL     1     -31.344  31.709  14.046  1.00  0.00    -0.190 OA
ENDROOT
BRANCH   1   2
HETATM    2  C   UNL     1     -30.913  30.395  14.061  1.00  0.00     0.382 C 
HETATM    3  N   UNL     1     -31.924  29.525  14.468  1.00  0.00    -0.032 NA
HETATM    4  O   UNL     1     -29.838  29.975  13.731  1.00  0.00    -0.242 OA
ENDBRANCH   1   2
BRANCH   1   5
HETATM    5  P   UNL     1     -30.615  32.798  15.028  1.00  0.00     0.430 P 
HETATM    6  O   UNL     1     -31.548  33.983  15.123  1.00  0.00    -0.616 OA
HETATM    7  O   UNL     1     -29.215  33.111  14.487  1.00  0.00    -0.616 OA
HETATM    8  O   UNL     1     -30.617  31.986  16.304  1.00  0.00    -0.616 OA
ENDBRANCH   1   5
TORSDOF 2
ENDMDL
MODEL 4
REMARK VINA RESULT:    -5.351      2.023      2.962
REMARK INTER + INTRA:          -6.058
REMARK INTER:                  -6.052
REMARK INTRA:                  -0.006
REMARK UNBOUND:                -0.081
REMARK  2 active torsions:
REMARK  status: ('A' for Active; 'I' for Inactive)
REMARK    1  A    between atoms: C_2  and  O_4 
REMARK    2  A    between atoms: O_4  and  P_5 
ROOT
HETATM    1  O   UNL     1     -29.277  33.023  14.368  1.00  0.00    -0.190 OA
ENDROOT
BRANCH   1   2
HETATM    2  C   UNL     1     -28.684  32.354  13.312  1.00  0.00     0.382 C 
HETATM    3  N   UNL     1     -28.506  33.187  12.208  1.00  0.00    -0.032 NA
HETATM    4  O   UNL     1     -28.298  31.218  13.292  1.00  0.00    -0.242 OA
ENDBRANCH   1   2
BRANCH   1   5
HETATM    5  P   UNL     1     -30.724  32.502  14.930  1.00  0.00     0.430 P 
HETATM    6  O   UNL     1     -31.284  31.573  13.878  1.00  0.00    -0.616 OA
HETATM    7  O   UNL     1     -31.603  33.713  15.266  1.00  0.00    -0.616 OA
HETATM    8  O   UNL     1     -30.232  31.740  16.140  1.00  0.00    -0.616 OA
ENDBRANCH   1   5
TORSDOF 2
ENDMDL
MODEL 5
REMARK VINA RESULT:    -5.258      2.689      3.636
REMARK INTER + INTRA:          -5.954
REMARK INTER:                  -5.938
REMARK INTRA:                  -0.015
REMARK UNBOUND:                -0.081
REMARK  2 active torsions:
REMARK  status: ('A' for Active; 'I' for Inactive)
REMARK    1  A    between atoms: C_2  and  O_4 
REMARK    2  A    between atoms: O_4  and  P_5 
ROOT
HETATM    1  O   UNL     1     -30.960  33.121  14.030  1.00  0.00    -0.190 OA
ENDROOT
BRANCH   1   2
HETATM    2  C   UNL     1     -30.176  34.223  14.326  1.00  0.00     0.382 C 
HETATM    3  N   UNL     1     -30.952  35.335  14.647  1.00  0.00    -0.032 NA
HETATM    4  O   UNL     1     -28.978  34.276  14.370  1.00  0.00    -0.242 OA
ENDBRANCH   1   2
BRANCH   1   5
HETATM    5  P   UNL     1     -30.472  31.640  14.529  1.00  0.00     0.430 P 
HETATM    6  O   UNL     1     -30.297  31.727  16.028  1.00  0.00    -0.616 OA
HETATM    7  O   UNL     1     -29.217  31.230  13.749  1.00  0.00    -0.616 OA
HETATM    8  O   UNL     1     -31.713  30.859  14.159  1.00  0.00    -0.616 OA
ENDBRANCH   1   5
TORSDOF 2
ENDMDL
MODEL 6
REMARK VINA RESULT:    -5.171      2.635      3.489
REMARK INTER + INTRA:          -5.857
REMARK INTER:                  -6.021
REMARK INTRA:                   0.164
REMARK UNBOUND:                -0.081
REMARK  2 active torsions:
REMARK  status: ('A' for Active; 'I' for Inactive)
REMARK    1  A    between atoms: C_2  and  O_4 
REMARK    2  A    between atoms: O_4  and  P_5 
ROOT
HETATM    1  O   UNL     1     -31.011  33.027  14.051  1.00  0.00    -0.190 OA
ENDROOT
BRANCH   1   2
HETATM    2  C   UNL     1     -30.165  34.087  14.325  1.00  0.00     0.382 C 
HETATM    3  N   UNL     1     -30.874  35.240  14.660  1.00  0.00    -0.032 NA
HETATM    4  O   UNL     1     -28.964  34.078  14.343  1.00  0.00    -0.242 OA
ENDBRANCH   1   2
BRANCH   1   5
HETATM    5  P   UNL     1     -30.568  31.517  14.503  1.00  0.00     0.430 P 
HETATM    6  O   UNL     1     -29.268  31.220  13.792  1.00  0.00    -0.616 OA
HETATM    7  O   UNL     1     -31.714  30.542  14.203  1.00  0.00    -0.616 OA
HETATM    8  O   UNL     1     -30.348  31.779  15.976  1.00  0.00    -0.616 OA
ENDBRANCH   1   5
TORSDOF 2
ENDMDL
MODEL 7
REMARK VINA RESULT:    -5.038      2.566      3.735
REMARK INTER + INTRA:          -5.708
REMARK INTER:                  -5.697
REMARK INTRA:                  -0.011
REMARK UNBOUND:                -0.081
REMARK  2 active torsions:
REMARK  status: ('A' for Active; 'I' for Inactive)
REMARK    1  A    between atoms: C_2  and  O_4 
REMARK    2  A    between atoms: O_4  and  P_5 
ROOT
HETATM    1  O   UNL     1     -29.220  33.429  14.769  1.00  0.00    -0.190 OA
ENDROOT
BRANCH   1   2
HETATM    2  C   UNL     1     -29.143  34.527  13.931  1.00  0.00     0.382 C 
HETATM    3  N   UNL     1     -28.366  34.263  12.804  1.00  0.00    -0.032 NA
HETATM    4  O   UNL     1     -29.690  35.588  14.065  1.00  0.00    -0.242 OA
ENDBRANCH   1   2
BRANCH   1   5
HETATM    5  P   UNL     1     -30.645  32.637  14.916  1.00  0.00     0.430 P 
HETATM    6  O   UNL     1     -30.879  31.926  13.603  1.00  0.00    -0.616 OA
HETATM    7  O   UNL     1     -31.739  33.633  15.323  1.00  0.00    -0.616 OA
HETATM    8  O   UNL     1     -30.252  31.669  16.009  1.00  0.00    -0.616 OA
ENDBRANCH   1   5
TORSDOF 2
ENDMDL
MODEL 8
REMARK VINA RESULT:    -4.677      2.348      3.467
REMARK INTER + INTRA:          -5.305
REMARK INTER:                  -5.391
REMARK INTRA:                   0.086
REMARK UNBOUND:                -0.081
REMARK  2 active torsions:
REMARK  status: ('A' for Active; 'I' for Inactive)
REMARK    1  A    between atoms: C_2  and  O_4 
REMARK    2  A    between atoms: O_4  and  P_5 
ROOT
HETATM    1  O   UNL     1     -31.430  31.667  14.109  1.00  0.00    -0.190 OA
ENDROOT
BRANCH   1   2
HETATM    2  C   UNL     1     -30.934  32.373  15.191  1.00  0.00     0.382 C 
HETATM    3  N   UNL     1     -31.339  33.707  15.166  1.00  0.00    -0.032 NA
HETATM    4  O   UNL     1     -30.277  31.948  16.101  1.00  0.00    -0.242 OA
ENDBRANCH   1   2
BRANCH   1   5
HETATM    5  P   UNL     1     -30.944  30.121  13.876  1.00  0.00     0.430 P 
HETATM    6  O   UNL     1     -31.629  29.291  14.937  1.00  0.00    -0.616 OA
HETATM    7  O   UNL     1     -29.412  30.064  13.891  1.00  0.00    -0.616 OA
HETATM    8  O   UNL     1     -31.559  29.897  12.512  1.00  0.00    -0.616 OA
ENDBRANCH   1   5
TORSDOF 2
ENDMDL
MODEL 9
REMARK VINA RESULT:    -4.488     10.024     10.834
REMARK INTER + INTRA:          -5.093
REMARK INTER:                  -5.045
REMARK INTRA:                  -0.048
REMARK UNBOUND:                -0.081
REMARK  2 active torsions:
REMARK  status: ('A' for Active; 'I' for Inactive)
REMARK    1  A    between atoms: C_2  and  O_4 
REMARK    2  A    between atoms: O_4  and  P_5 
ROOT
HETATM    1  O   UNL     1     -26.083  31.277   6.078  1.00  0.00    -0.190 OA
ENDROOT
BRANCH   1   2
HETATM    2  C   UNL     1     -26.632  32.443   6.581  1.00  0.00     0.382 C 
HETATM    3  N   UNL     1     -25.722  33.141   7.373  1.00  0.00    -0.032 NA
HETATM    4  O   UNL     1     -27.726  32.888   6.364  1.00  0.00    -0.242 OA
ENDBRANCH   1   2
BRANCH   1   5
HETATM    5  P   UNL     1     -25.298  31.320   4.643  1.00  0.00     0.430 P 
HETATM    6  O   UNL     1     -25.545  32.691   4.058  1.00  0.00    -0.616 OA
HETATM    7  O   UNL     1     -25.766  30.146   3.773  1.00  0.00    -0.616 OA
HETATM    8  O   UNL     1     -23.883  31.182   5.158  1.00  0.00    -0.616 OA
ENDBRANCH   1   5
TORSDOF 2
ENDMDL
MODEL 10
REMARK VINA RESULT:    -4.469      9.974     10.783
REMARK INTER + INTRA:          -5.072
REMARK INTER:                  -4.974
REMARK INTRA:                  -0.098
REMARK UNBOUND:                -0.081
REMARK  2 active torsions:
REMARK  status: ('A' for Active; 'I' for Inactive)
REMARK    1  A    between atoms: C_2  and  O_4 
REMARK    2  A    between atoms: O_4  and  P_5 
ROOT
HETATM    1  O   UNL     1     -26.197  31.236   6.036  1.00  0.00    -0.190 OA
ENDROOT
BRANCH   1   2
HETATM    2  C   UNL     1     -26.743  32.370   6.612  1.00  0.00     0.382 C 
HETATM    3  N   UNL     1     -25.796  33.082   7.346  1.00  0.00    -0.032 NA
HETATM    4  O   UNL     1     -27.865  32.780   6.496  1.00  0.00    -0.242 OA
ENDBRANCH   1   2
BRANCH   1   5
HETATM    5  P   UNL     1     -25.276  31.390   4.692  1.00  0.00     0.430 P 
HETATM    6  O   UNL     1     -23.840  31.218   5.133  1.00  0.00    -0.616 OA
HETATM    7  O   UNL     1     -25.594  32.726   4.009  1.00  0.00    -0.616 OA
HETATM    8  O   UNL     1     -25.774  30.176   3.939  1.00  0.00    -0.616 OA
ENDBRANCH   1   5
TORSDOF 2
ENDMDL
MODEL 11
REMARK VINA RESULT:    -4.298      2.484      3.082
REMARK INTER + INTRA:          -4.881
REMARK INTER:                  -4.802
REMARK INTRA:                  -0.079
REMARK UNBOUND:                -0.081
REMARK  2 active torsions:
REMARK  status: ('A' for Active; 'I' for Inactive)
REMARK    1  A    between atoms: C_2  and  O_4 
REMARK    2  A    between atoms: O_4  and  P_5 
ROOT
HETATM    1  O   UNL     1     -30.126  32.486  13.419  1.00  0.00    -0.190 OA
ENDROOT
BRANCH   1   2
HETATM    2  C   UNL     1     -30.468  32.355  14.753  1.00  0.00     0.382 C 
HETATM    3  N   UNL     1     -31.380  33.332  15.149  1.00  0.00    -0.032 NA
HETATM    4  O   UNL     1     -30.107  31.505  15.519  1.00  0.00    -0.242 OA
ENDBRANCH   1   2
BRANCH   1   5
HETATM    5  P   UNL     1     -28.557  32.730  13.019  1.00  0.00     0.430 P 
HETATM    6  O   UNL     1     -28.551  33.250  11.600  1.00  0.00    -0.616 OA
HETATM    7  O   UNL     1     -27.769  31.433  13.242  1.00  0.00    -0.616 OA
HETATM    8  O   UNL     1     -28.240  33.825  14.013  1.00  0.00    -0.616 OA
ENDBRANCH   1   5
TORSDOF 2
ENDMDL
MODEL 12
REMARK VINA RESULT:    -4.224     11.585     12.384
REMARK INTER + INTRA:          -4.799
REMARK INTER:                  -4.693
REMARK INTRA:                  -0.106
REMARK UNBOUND:                -0.081
REMARK  2 active torsions:
REMARK  status: ('A' for Active; 'I' for Inactive)
REMARK    1  A    between atoms: C_2  and  O_4 
REMARK    2  A    between atoms: O_4  and  P_5 
ROOT
HETATM    1  O   UNL     1     -25.096  39.096  22.725  1.00  0.00    -0.190 OA
ENDROOT
BRANCH   1   2
HETATM    2  C   UNL     1     -24.161  38.734  23.679  1.00  0.00     0.382 C 
HETATM    3  N   UNL     1     -23.147  39.684  23.794  1.00  0.00    -0.032 NA
HETATM    4  O   UNL     1     -24.180  37.768  24.391  1.00  0.00    -0.242 OA
ENDBRANCH   1   2
BRANCH   1   5
HETATM    5  P   UNL     1     -25.142  38.281  21.306  1.00  0.00     0.430 P 
HETATM    6  O   UNL     1     -25.884  36.992  21.574  1.00  0.00    -0.616 OA
HETATM    7  O   UNL     1     -23.715  38.113  20.771  1.00  0.00    -0.616 OA
HETATM    8  O   UNL     1     -25.988  39.255  20.517  1.00  0.00    -0.616 OA
ENDBRANCH   1   5
TORSDOF 2
ENDMDL
MODEL 13
REMARK VINA RESULT:    -4.055      5.288      6.128
REMARK INTER + INTRA:          -4.609
REMARK INTER:                  -4.554
REMARK INTRA:                  -0.056
REMARK UNBOUND:                -0.081
REMARK  2 active torsions:
REMARK  status: ('A' for Active; 'I' for Inactive)
REMARK    1  A    between atoms: C_2  and  O_4 
REMARK    2  A    between atoms: O_4  and  P_5 
ROOT
HETATM    1  O   UNL     1     -25.723  31.646  13.096  1.00  0.00    -0.190 OA
ENDROOT
BRANCH   1   2
HETATM    2  C   UNL     1     -26.879  31.956  12.402  1.00  0.00     0.382 C 
HETATM    3  N   UNL     1     -28.021  31.625  13.130  1.00  0.00    -0.032 NA
HETATM    4  O   UNL     1     -26.968  32.489  11.330  1.00  0.00    -0.242 OA
ENDBRANCH   1   2
BRANCH   1   5
HETATM    5  P   UNL     1     -25.018  30.187  12.859  1.00  0.00     0.430 P 
HETATM    6  O   UNL     1     -24.965  29.973  11.364  1.00  0.00    -0.616 OA
HETATM    7  O   UNL     1     -25.789  29.119  13.644  1.00  0.00    -0.616 OA
HETATM    8  O   UNL     1     -23.652  30.505  13.424  1.00  0.00    -0.616 OA
ENDBRANCH   1   5
TORSDOF 2
ENDMDL
MODEL 14
REMARK VINA RESULT:    -4.027     12.019     12.781
REMARK INTER + INTRA:          -4.579
REMARK INTER:                  -4.529
REMARK INTRA:                  -0.050
REMARK UNBOUND:                -0.081
REMARK  2 active torsions:
REMARK  status: ('A' for Active; 'I' for Inactive)
REMARK    1  A    between atoms: C_2  and  O_4 
REMARK    2  A    between atoms: O_4  and  P_5 
ROOT
HETATM    1  O   UNL     1     -24.938  39.428  22.284  1.00  0.00    -0.190 OA
ENDROOT
BRANCH   1   2
HETATM    2  C   UNL     1     -24.902  38.309  21.472  1.00  0.00     0.382 C 
HETATM    3  N   UNL     1     -26.093  37.586  21.537  1.00  0.00    -0.032 NA
HETATM    4  O   UNL     1     -24.016  37.967  20.738  1.00  0.00    -0.242 OA
ENDBRANCH   1   2
BRANCH   1   5
HETATM    5  P   UNL     1     -23.891  39.536  23.538  1.00  0.00     0.430 P 
HETATM    6  O   UNL     1     -24.336  40.717  24.370  1.00  0.00    -0.616 OA
HETATM    7  O   UNL     1     -22.458  39.623  22.996  1.00  0.00    -0.616 OA
HETATM    8  O   UNL     1     -24.217  38.224  24.216  1.00  0.00    -0.616 OA
ENDBRANCH   1   5
TORSDOF 2
ENDMDL
MODEL 15
REMARK VINA RESULT:    -3.965      6.110      7.087
REMARK INTER + INTRA:          -4.510
REMARK INTER:                  -4.447
REMARK INTRA:                  -0.063
REMARK UNBOUND:                -0.081
REMARK  2 active torsions:
REMARK  status: ('A' for Active; 'I' for Inactive)
REMARK    1  A    between atoms: C_2  and  O_4 
REMARK    2  A    between atoms: O_4  and  P_5 
ROOT
HETATM    1  O   UNL     1     -23.993  30.942  13.456  1.00  0.00    -0.190 OA
ENDROOT
BRANCH   1   2
HETATM    2  C   UNL     1     -24.058  32.320  13.343  1.00  0.00     0.382 C 
HETATM    3  N   UNL     1     -23.546  32.763  12.125  1.00  0.00    -0.032 NA
HETATM    4  O   UNL     1     -24.529  33.095  14.130  1.00  0.00    -0.242 OA
ENDBRANCH   1   2
BRANCH   1   5
HETATM    5  P   UNL     1     -25.281  30.043  12.993  1.00  0.00     0.430 P 
HETATM    6  O   UNL     1     -24.922  29.433  11.658  1.00  0.00    -0.616 OA
HETATM    7  O   UNL     1     -26.538  30.922  12.993  1.00  0.00    -0.616 OA
HETATM    8  O   UNL     1     -25.245  29.015  14.102  1.00  0.00    -0.616 OA
ENDBRANCH   1   5
TORSDOF 2
ENDMDL
MODEL 16
REMARK VINA RESULT:    -3.956      5.727      6.369
REMARK INTER + INTRA:          -4.499
REMARK INTER:                  -4.475
REMARK INTRA:                  -0.024
REMARK UNBOUND:                -0.081
REMARK  2 active torsions:
REMARK  status: ('A' for Active; 'I' for Inactive)
REMARK    1  A    between atoms: C_2  and  O_4 
REMARK    2  A    between atoms: O_4  and  P_5 
ROOT
HETATM    1  O   UNL     1     -24.641  30.309  12.481  1.00  0.00    -0.190 OA
ENDROOT
BRANCH   1   2
HETATM    2  C   UNL     1     -24.344  29.588  13.624  1.00  0.00     0.382 C 
HETATM    3  N   UNL     1     -22.989  29.660  13.941  1.00  0.00    -0.032 NA
HETATM    4  O   UNL     1     -25.110  28.994  14.332  1.00  0.00    -0.242 OA
ENDBRANCH   1   2
BRANCH   1   5
HETATM    5  P   UNL     1     -25.443  31.729  12.621  1.00  0.00     0.430 P 
HETATM    6  O   UNL     1     -25.405  32.381  11.258  1.00  0.00    -0.616 OA
HETATM    7  O   UNL     1     -24.822  32.553  13.756  1.00  0.00    -0.616 OA
HETATM    8  O   UNL     1     -26.817  31.180  12.936  1.00  0.00    -0.616 OA
ENDBRANCH   1   5
TORSDOF 2
ENDMDL
MODEL 17
REMARK VINA RESULT:    -3.932     12.052     12.786
REMARK INTER + INTRA:          -4.473
REMARK INTER:                  -4.371
REMARK INTRA:                  -0.102
REMARK UNBOUND:                -0.081
REMARK  2 active torsions:
REMARK  status: ('A' for Active; 'I' for Inactive)
REMARK    1  A    between atoms: C_2  and  O_4 
REMARK    2  A    between atoms: O_4  and  P_5 
ROOT
HETATM    1  O   UNL     1     -24.588  39.290  22.001  1.00  0.00    -0.190 OA
ENDROOT
BRANCH   1   2
HETATM    2  C   UNL     1     -25.661  38.429  21.861  1.00  0.00     0.382 C 
HETATM    3  N   UNL     1     -26.866  39.049  22.191  1.00  0.00    -0.032 NA
HETATM    4  O   UNL     1     -25.643  37.297  21.463  1.00  0.00    -0.242 OA
ENDBRANCH   1   2
BRANCH   1   5
HETATM    5  P   UNL     1     -23.919  39.497  23.481  1.00  0.00     0.430 P 
HETATM    6  O   UNL     1     -24.212  38.238  24.264  1.00  0.00    -0.616 OA
HETATM    7  O   UNL     1     -24.455  40.793  24.103  1.00  0.00    -0.616 OA
HETATM    8  O   UNL     1     -22.467  39.566  23.063  1.00  0.00    -0.616 OA
ENDBRANCH   1   5
TORSDOF 2
ENDMDL
MODEL 18
REMARK VINA RESULT:    -3.929      9.671     10.549
REMARK INTER + INTRA:          -4.469
REMARK INTER:                  -4.448
REMARK INTRA:                  -0.021
REMARK UNBOUND:                -0.081
REMARK  2 active torsions:
REMARK  status: ('A' for Active; 'I' for Inactive)
REMARK    1  A    between atoms: C_2  and  O_4 
REMARK    2  A    between atoms: O_4  and  P_5 
ROOT
HETATM    1  O   UNL     1     -25.164  32.731   6.228  1.00  0.00    -0.190 OA
ENDROOT
BRANCH   1   2
HETATM    2  C   UNL     1     -26.222  32.560   7.103  1.00  0.00     0.382 C 
HETATM    3  N   UNL     1     -27.447  32.808   6.486  1.00  0.00    -0.032 NA
HETATM    4  O   UNL     1     -26.173  32.195   8.246  1.00  0.00    -0.242 OA
ENDBRANCH   1   2
BRANCH   1   5
HETATM    5  P   UNL     1     -24.664  31.461   5.324  1.00  0.00     0.430 P 
HETATM    6  O   UNL     1     -25.592  30.313   5.645  1.00  0.00    -0.616 OA
HETATM    7  O   UNL     1     -23.178  31.196   5.601  1.00  0.00    -0.616 OA
HETATM    8  O   UNL     1     -24.944  32.037   3.955  1.00  0.00    -0.616 OA
ENDBRANCH   1   5
TORSDOF 2
ENDMDL
MODEL 19
REMARK VINA RESULT:    -3.855     10.213     10.986
REMARK INTER + INTRA:          -4.387
REMARK INTER:                  -4.282
REMARK INTRA:                  -0.105
REMARK UNBOUND:                -0.081
REMARK  2 active torsions:
REMARK  status: ('A' for Active; 'I' for Inactive)
REMARK    1  A    between atoms: C_2  and  O_4 
REMARK    2  A    between atoms: O_4  and  P_5 
ROOT
HETATM    1  O   UNL     1     -25.833  32.445   5.276  1.00  0.00    -0.190 OA
ENDROOT
BRANCH   1   2
HETATM    2  C   UNL     1     -25.347  32.051   4.042  1.00  0.00     0.382 C 
HETATM    3  N   UNL     1     -25.393  30.666   3.888  1.00  0.00    -0.032 NA
HETATM    4  O   UNL     1     -24.966  32.756   3.148  1.00  0.00    -0.242 OA
ENDBRANCH   1   2
BRANCH   1   5
HETATM    5  P   UNL     1     -24.860  32.334   6.588  1.00  0.00     0.430 P 
HETATM    6  O   UNL     1     -23.448  32.560   6.097  1.00  0.00    -0.616 OA
HETATM    7  O   UNL     1     -25.101  30.989   7.285  1.00  0.00    -0.616 OA
HETATM    8  O   UNL     1     -25.379  33.530   7.354  1.00  0.00    -0.616 OA
ENDBRANCH   1   5
TORSDOF 2
ENDMDL
MODEL 20
REMARK VINA RESULT:    -3.841     10.444     11.172
REMARK INTER + INTRA:          -4.371
REMARK INTER:                  -4.287
REMARK INTRA:                  -0.083
REMARK UNBOUND:                -0.081
REMARK  2 active torsions:
REMARK  status: ('A' for Active; 'I' for Inactive)
REMARK    1  A    between atoms: C_2  and  O_4 
REMARK    2  A    between atoms: O_4  and  P_5 
ROOT
HETATM    1  O   UNL     1     -24.324  31.297   5.073  1.00  0.00    -0.190 OA
ENDROOT
BRANCH   1   2
HETATM    2  C   UNL     1     -25.054  31.232   3.899  1.00  0.00     0.382 C 
HETATM    3  N   UNL     1     -25.071  32.456   3.234  1.00  0.00    -0.032 NA
HETATM    4  O   UNL     1     -25.588  30.267   3.424  1.00  0.00    -0.242 OA
ENDBRANCH   1   2
BRANCH   1   5
HETATM    5  P   UNL     1     -25.069  31.783   6.448  1.00  0.00     0.430 P 
HETATM    6  O   UNL     1     -26.555  31.693   6.187  1.00  0.00    -0.616 OA
HETATM    7  O   UNL     1     -24.558  33.177   6.835  1.00  0.00    -0.616 OA
HETATM    8  O   UNL     1     -24.596  30.675   7.362  1.00  0.00    -0.616 OA
ENDBRANCH   1   5
TORSDOF 2
ENDMDL
