REMARK  3 active torsions:
REMARK  status: ('A' for Active; 'I' for Inactive)
REMARK    1  A    between atoms: O_1  and  C_4 
REMARK    2  A    between atoms: O_2  and  C_8 
REMARK    3  A    between atoms: CA_7  and  C_8 
ROOT
HETATM    1  N   UNL     1      -0.896  -0.843  -0.318  1.00  0.00     0.101 N 
HETATM    2  C   UNL     1       0.613   1.014  -0.584  1.00  0.00     0.163 C 
HETATM    3  C   UNL     1      -0.578   1.258  -1.486  1.00  0.00     0.064 C 
HETATM    4  C   UNL     1      -1.596   0.204  -1.070  1.00  0.00     0.273 C 
HETATM    5  CA  UNL     1       0.524  -0.485  -0.310  1.00  0.00     0.345 C 
HETATM    6  H   UNL     1      -1.013  -1.759  -0.813  1.00  0.00     0.317 HD
ENDROOT
BRANCH   5   7
HETATM    7  C   UNL     1       1.172  -0.883   0.986  1.00  0.00     0.176 C 
HETATM    8  OXT UNL     1       0.516  -0.863   2.063  1.00  0.00    -0.648 OA
BRANCH   7   9
HETATM    9  O   UNL     1       2.519  -1.232   1.002  1.00  0.00    -0.775 OA
HETATM   10  H   UNL     1       2.979  -1.486   1.868  1.00  0.00     0.167 HD
ENDBRANCH   7   9
ENDBRANCH   5   7
BRANCH   2  11
HETATM   11  O   UNL     1       0.472   1.754   0.604  1.00  0.00    -0.393 OA
HETATM   12  H   UNL     1       0.760   2.681   0.396  1.00  0.00     0.210 HD
ENDBRANCH   2  11
TORSDOF 3
