MODEL 1
REMARK VINA RESULT:   -11.916      0.000      0.000
REMARK INTER + INTRA:         -15.125
REMARK INTER:                 -14.006
REMARK INTRA:                  -1.119
REMARK UNBOUND:                -1.119
REMARK  4 active torsions:
REMARK  status: ('A' for Active; 'I' for Inactive)
REMARK    1  A    between atoms: N_13  and  C_14 
REMARK    2  A    between atoms: C_24  and  O_25 
REMARK    3  A    between atoms: C_32  and  O_33 
REMARK    4  A    between atoms: C_36  and  N_37 
ROOT
HETATM    1  C   UNL     1      15.612  47.048  38.902  1.00  0.00     0.180 C 
HETATM    2  C   UNL     1      16.109  47.445  37.492  1.00  0.00     0.216 C 
HETATM    3  C   UNL     1      15.275  51.883  37.580  1.00  0.00     0.198 C 
HETATM    4  C   UNL     1      13.512  53.119  36.525  1.00  0.00     0.262 C 
HETATM    5  O   UNL     1      13.000  52.552  37.749  1.00  0.00    -0.353 OA
HETATM    6  C   UNL     1      14.046  51.802  38.391  1.00  0.00     0.180 C 
HETATM    7  C   UNL     1      14.191  52.355  39.841  1.00  0.00     0.216 C 
HETATM    8  O   UNL     1      15.492  52.021  40.362  1.00  0.00    -0.287 OA
HETATM    9  P   UNL     1      15.395  51.120  41.811  1.00  0.00     0.408 P 
HETATM   10  O   UNL     1      16.823  51.009  42.264  1.00  0.00    -0.624 OA
HETATM   11  O   UNL     1      14.475  51.591  42.918  1.00  0.00    -0.624 OA
HETATM   12  O   UNL     1      14.857  49.570  41.295  1.00  0.00    -0.277 OA
HETATM   13  C   UNL     1      15.663  48.933  40.277  1.00  0.00     0.215 C 
HETATM   14  C   UNL     1      14.738  48.137  39.451  1.00  0.00     0.183 C 
HETATM   15  O   UNL     1      16.852  48.750  37.595  1.00  0.00    -0.287 OA
HETATM   16  P   UNL     1      16.689  49.898  36.396  1.00  0.00     0.408 P 
HETATM   17  O   UNL     1      16.416  49.188  35.077  1.00  0.00    -0.624 OA
HETATM   18  O   UNL     1      17.863  50.853  36.313  1.00  0.00    -0.624 OA
HETATM   19  O   UNL     1      15.223  50.665  36.760  1.00  0.00    -0.279 OA
HETATM   20  C   UNL     1      15.037  53.070  36.743  1.00  0.00     0.199 C 
HETATM   21  O   UNL     1      16.678  46.932  39.795  1.00  0.00    -0.353 OA
HETATM   22  C   UNL     1      16.569  47.892  40.882  1.00  0.00     0.263 C 
ENDROOT
BRANCH   4  23
HETATM   23  N   UNL     1      13.190  54.492  36.550  1.00  0.00    -0.297 N 
HETATM   24  C   UNL     1      13.563  55.570  37.151  1.00  0.00     0.146 A 
HETATM   25  C   UNL     1      12.843  56.634  36.691  1.00  0.00     0.146 A 
HETATM   26  N   UNL     1      14.615  55.677  38.195  1.00  0.00    -0.314 N 
HETATM   27  C   UNL     1      13.156  58.009  37.301  1.00  0.00     0.278 A 
HETATM   28  N   UNL     1      12.005  56.166  35.759  1.00  0.00    -0.345 N 
HETATM   29  N   UNL     1      14.167  58.115  38.304  1.00  0.00    -0.295 N 
HETATM   30  O   UNL     1      12.582  58.998  36.963  1.00  0.00    -0.265 OA
HETATM   31  C   UNL     1      14.901  56.959  38.767  1.00  0.00     0.196 A 
ATOM     32  HN  UNL     1      14.376  59.030  38.705  1.00  0.00     0.171 HD
HETATM   33  N   UNL     1      15.932  57.062  39.805  1.00  0.00    -0.063 NA
HETATM   34  C   UNL     1      12.218  54.824  35.657  1.00  0.00     0.188 A 
ATOM     35  HN  UNL     1      11.330  56.713  35.223  1.00  0.00     0.167 HD
ATOM     36  HN  UNL     1      15.126  54.849  38.501  1.00  0.00     0.170 HD
ENDBRANCH   4  23
BRANCH  20  37
HETATM   37  O   UNL     1      15.752  53.055  35.522  1.00  0.00    -0.388 OA
ATOM     38  HO  UNL     1      16.279  52.271  35.425  1.00  0.00     0.210 HD
ENDBRANCH  20  37
BRANCH  14  39
HETATM   39  O   UNL     1      13.732  47.501  40.245  1.00  0.00    -0.390 OA
ATOM     40  HO  UNL     1      12.900  47.660  39.815  1.00  0.00     0.210 HD
ENDBRANCH  14  39
BRANCH  22  41
HETATM   41  N   UNL     1      17.917  48.327  41.125  1.00  0.00    -0.297 N 
HETATM   42  C   UNL     1      18.482  48.164  42.346  1.00  0.00     0.142 A 
HETATM   43  N   UNL     1      18.039  47.675  43.523  1.00  0.00    -0.336 N 
HETATM   44  C   UNL     1      19.739  48.623  42.255  1.00  0.00     0.119 A 
HETATM   45  C   UNL     1      18.861  47.651  44.615  1.00  0.00     0.183 A 
ATOM     46  HN  UNL     1      17.086  47.320  43.599  1.00  0.00     0.168 HD
HETATM   47  N   UNL     1      20.138  48.119  44.513  1.00  0.00    -0.339 N 
HETATM   48  C   UNL     1      20.565  48.601  43.345  1.00  0.00     0.148 A 
ATOM     49  HN  UNL     1      20.760  48.102  45.322  1.00  0.00     0.167 HD
HETATM   50  N   UNL     1      21.932  49.010  43.589  1.00  0.00    -0.080 NA
HETATM   51  N   UNL     1      19.963  49.054  40.999  1.00  0.00    -0.346 N 
HETATM   52  C   UNL     1      18.836  48.862  40.297  1.00  0.00     0.188 A 
ATOM     53  HN  UNL     1      20.832  49.453  40.645  1.00  0.00     0.167 HD
ENDBRANCH  22  41
TORSDOF 4
ENDMDL
MODEL 2
REMARK VINA RESULT:   -11.210      1.405      1.621
REMARK INTER + INTRA:         -14.294
REMARK INTER:                 -12.915
REMARK INTRA:                  -1.380
REMARK UNBOUND:                -1.119
REMARK  4 active torsions:
REMARK  status: ('A' for Active; 'I' for Inactive)
REMARK    1  A    between atoms: N_13  and  C_14 
REMARK    2  A    between atoms: C_24  and  O_25 
REMARK    3  A    between atoms: C_32  and  O_33 
REMARK    4  A    between atoms: C_36  and  N_37 
ROOT
HETATM    1  C   UNL     1      15.730  47.437  38.464  1.00  0.00     0.180 C 
HETATM    2  C   UNL     1      16.383  47.932  37.152  1.00  0.00     0.216 C 
HETATM    3  C   UNL     1      15.814  52.388  37.615  1.00  0.00     0.198 C 
HETATM    4  C   UNL     1      14.238  53.838  36.538  1.00  0.00     0.262 C 
HETATM    5  O   UNL     1      13.577  53.194  37.647  1.00  0.00    -0.353 OA
HETATM    6  C   UNL     1      14.510  52.315  38.301  1.00  0.00     0.180 C 
HETATM    7  C   UNL     1      14.548  52.716  39.807  1.00  0.00     0.216 C 
HETATM    8  O   UNL     1      15.771  52.244  40.405  1.00  0.00    -0.287 OA
HETATM    9  P   UNL     1      15.481  51.218  41.741  1.00  0.00     0.408 P 
HETATM   10  O   UNL     1      16.851  50.965  42.306  1.00  0.00    -0.624 OA
HETATM   11  O   UNL     1      14.490  51.643  42.804  1.00  0.00    -0.624 OA
HETATM   12  O   UNL     1      14.904  49.765  41.024  1.00  0.00    -0.277 OA
HETATM   13  C   UNL     1      15.763  49.173  40.023  1.00  0.00     0.215 C 
HETATM   14  C   UNL     1      14.876  48.527  39.041  1.00  0.00     0.183 C 
HETATM   15  O   UNL     1      17.191  49.166  37.453  1.00  0.00    -0.287 OA
HETATM   16  P   UNL     1      17.213  50.432  36.367  1.00  0.00     0.408 P 
HETATM   17  O   UNL     1      17.025  49.871  34.964  1.00  0.00    -0.624 OA
HETATM   18  O   UNL     1      18.444  51.306  36.487  1.00  0.00    -0.624 OA
HETATM   19  O   UNL     1      15.767  51.260  36.674  1.00  0.00    -0.279 OA
HETATM   20  C   UNL     1      15.729  53.663  36.886  1.00  0.00     0.199 C 
HETATM   21  O   UNL     1      16.697  47.162  39.433  1.00  0.00    -0.353 OA
HETATM   22  C   UNL     1      16.543  48.019  40.597  1.00  0.00     0.263 C 
ENDROOT
BRANCH   4  23
HETATM   23  N   UNL     1      13.998  55.222  36.674  1.00  0.00    -0.297 N 
HETATM   24  C   UNL     1      14.326  56.328  36.099  1.00  0.00     0.146 A 
HETATM   25  C   UNL     1      13.712  57.377  36.720  1.00  0.00     0.146 A 
HETATM   26  N   UNL     1      15.234  56.480  34.932  1.00  0.00    -0.314 N 
HETATM   27  C   UNL     1      13.989  58.782  36.165  1.00  0.00     0.278 A 
HETATM   28  N   UNL     1      12.972  56.865  37.712  1.00  0.00    -0.345 N 
HETATM   29  N   UNL     1      14.861  58.931  35.044  1.00  0.00    -0.295 N 
HETATM   30  O   UNL     1      13.498  59.759  36.640  1.00  0.00    -0.265 OA
HETATM   31  C   UNL     1      15.496  57.792  34.419  1.00  0.00     0.196 A 
ATOM     32  HN  UNL     1      15.040  59.865  34.674  1.00  0.00     0.171 HD
HETATM   33  N   UNL     1      16.400  57.942  33.275  1.00  0.00    -0.063 NA
HETATM   34  C   UNL     1      13.138  55.513  37.688  1.00  0.00     0.188 A 
ATOM     35  HN  UNL     1      12.390  57.391  38.364  1.00  0.00     0.167 HD
ATOM     36  HN  UNL     1      15.664  55.662  34.503  1.00  0.00     0.170 HD
ENDBRANCH   4  23
BRANCH  20  37
HETATM   37  O   UNL     1      16.556  53.715  35.739  1.00  0.00    -0.388 OA
ATOM     38  HO  UNL     1      16.831  54.601  35.535  1.00  0.00     0.210 HD
ENDBRANCH  20  37
BRANCH  14  39
HETATM   39  O   UNL     1      13.761  47.889  39.673  1.00  0.00    -0.390 OA
ATOM     40  HO  UNL     1      13.076  47.819  39.019  1.00  0.00     0.210 HD
ENDBRANCH  14  39
BRANCH  22  41
HETATM   41  N   UNL     1      17.885  48.334  41.003  1.00  0.00    -0.297 N 
HETATM   42  C   UNL     1      18.289  48.109  42.276  1.00  0.00     0.142 A 
HETATM   43  N   UNL     1      17.673  47.644  43.384  1.00  0.00    -0.336 N 
HETATM   44  C   UNL     1      19.582  48.460  42.341  1.00  0.00     0.119 A 
HETATM   45  C   UNL     1      18.358  47.537  44.562  1.00  0.00     0.183 A 
ATOM     46  HN  UNL     1      16.691  47.372  43.342  1.00  0.00     0.168 HD
HETATM   47  N   UNL     1      19.672  47.896  44.617  1.00  0.00    -0.339 N 
HETATM   48  C   UNL     1      20.271  48.353  43.517  1.00  0.00     0.148 A 
ATOM     49  HN  UNL     1      20.192  47.815  45.491  1.00  0.00     0.167 HD
HETATM   50  N   UNL     1      21.630  48.641  43.925  1.00  0.00    -0.080 NA
HETATM   51  N   UNL     1      19.985  48.885  41.128  1.00  0.00    -0.346 N 
HETATM   52  C   UNL     1      18.935  48.799  40.297  1.00  0.00     0.188 A 
ATOM     53  HN  UNL     1      20.920  49.213  40.885  1.00  0.00     0.167 HD
ENDBRANCH  22  41
TORSDOF 4
ENDMDL
MODEL 3
REMARK VINA RESULT:    -9.827      2.468      9.248
REMARK INTER + INTRA:         -12.669
REMARK INTER:                 -11.674
REMARK INTRA:                  -0.996
REMARK UNBOUND:                -1.119
REMARK  4 active torsions:
REMARK  status: ('A' for Active; 'I' for Inactive)
REMARK    1  A    between atoms: N_13  and  C_14 
REMARK    2  A    between atoms: C_24  and  O_25 
REMARK    3  A    between atoms: C_32  and  O_33 
REMARK    4  A    between atoms: C_36  and  N_37 
ROOT
HETATM    1  C   UNL     1      16.558  51.754  33.973  1.00  0.00     0.180 C 
HETATM    2  C   UNL     1      15.806  50.469  34.394  1.00  0.00     0.216 C 
HETATM    3  C   UNL     1      17.082  50.183  38.717  1.00  0.00     0.198 C 
HETATM    4  C   UNL     1      18.685  48.720  39.735  1.00  0.00     0.262 C 
HETATM    5  O   UNL     1      19.394  49.827  39.140  1.00  0.00    -0.353 OA
HETATM    6  C   UNL     1      18.445  50.713  38.520  1.00  0.00     0.180 C 
HETATM    7  C   UNL     1      18.678  52.135  39.115  1.00  0.00     0.216 C 
HETATM    8  O   UNL     1      17.496  52.938  38.933  1.00  0.00    -0.287 OA
HETATM    9  P   UNL     1      17.818  54.369  38.056  1.00  0.00     0.408 P 
HETATM   10  O   UNL     1      16.520  55.125  38.109  1.00  0.00    -0.624 OA
HETATM   11  O   UNL     1      19.001  55.230  38.447  1.00  0.00    -0.624 OA
HETATM   12  O   UNL     1      18.070  53.816  36.447  1.00  0.00    -0.277 OA
HETATM   13  C   UNL     1      17.000  53.025  35.880  1.00  0.00     0.215 C 
HETATM   14  C   UNL     1      17.636  52.054  34.973  1.00  0.00     0.183 C 
HETATM   15  O   UNL     1      15.239  50.674  35.773  1.00  0.00    -0.287 OA
HETATM   16  P   UNL     1      15.249  49.420  36.873  1.00  0.00     0.408 P 
HETATM   17  O   UNL     1      15.153  48.105  36.111  1.00  0.00    -0.624 OA
HETATM   18  O   UNL     1      14.189  49.552  37.946  1.00  0.00    -0.624 OA
HETATM   19  O   UNL     1      16.829  49.425  37.484  1.00  0.00    -0.279 OA
HETATM   20  C   UNL     1      17.248  49.265  39.855  1.00  0.00     0.199 C 
HETATM   21  O   UNL     1      15.708  52.861  33.991  1.00  0.00    -0.353 OA
HETATM   22  C   UNL     1      16.149  53.856  34.955  1.00  0.00     0.263 C 
ENDROOT
BRANCH   4  23
HETATM   23  N   UNL     1      19.141  48.616  41.065  1.00  0.00    -0.297 N 
HETATM   24  C   UNL     1      18.669  48.381  42.242  1.00  0.00     0.146 A 
HETATM   25  C   UNL     1      19.678  48.391  43.161  1.00  0.00     0.146 A 
HETATM   26  N   UNL     1      17.245  48.134  42.586  1.00  0.00    -0.314 N 
HETATM   27  C   UNL     1      19.297  48.128  44.626  1.00  0.00     0.278 A 
HETATM   28  N   UNL     1      20.813  48.634  42.493  1.00  0.00    -0.345 N 
HETATM   29  N   UNL     1      17.929  47.890  44.960  1.00  0.00    -0.295 N 
HETATM   30  O   UNL     1      20.108  48.115  45.499  1.00  0.00    -0.265 OA
HETATM   31  C   UNL     1      16.890  47.895  43.954  1.00  0.00     0.196 A 
ATOM     32  HN  UNL     1      17.678  47.711  45.933  1.00  0.00     0.171 HD
HETATM   33  N   UNL     1      15.483  47.661  44.294  1.00  0.00    -0.063 NA
HETATM   34  C   UNL     1      20.489  48.770  41.177  1.00  0.00     0.188 A 
ATOM     35  HN  UNL     1      21.747  48.704  42.896  1.00  0.00     0.167 HD
ATOM     36  HN  UNL     1      16.530  48.134  41.860  1.00  0.00     0.170 HD
ENDBRANCH   4  23
BRANCH  20  37
HETATM   37  O   UNL     1      16.285  48.230  39.892  1.00  0.00    -0.388 OA
ATOM     38  HO  UNL     1      15.438  48.516  39.569  1.00  0.00     0.210 HD
ENDBRANCH  20  37
BRANCH  14  39
HETATM   39  O   UNL     1      18.723  52.638  34.249  1.00  0.00    -0.390 OA
ATOM     40  HO  UNL     1      19.388  52.867  34.887  1.00  0.00     0.210 HD
ENDBRANCH  14  39
BRANCH  22  41
HETATM   41  N   UNL     1      14.939  54.366  35.538  1.00  0.00    -0.297 N 
HETATM   42  C   UNL     1      14.739  55.701  35.649  1.00  0.00     0.142 A 
HETATM   43  N   UNL     1      15.484  56.786  35.349  1.00  0.00    -0.336 N 
HETATM   44  C   UNL     1      13.521  55.868  36.186  1.00  0.00     0.119 A 
HETATM   45  C   UNL     1      15.006  58.043  35.595  1.00  0.00     0.183 A 
ATOM     46  HN  UNL     1      16.410  56.668  34.937  1.00  0.00     0.168 HD
HETATM   47  N   UNL     1      13.766  58.202  36.141  1.00  0.00    -0.339 N 
HETATM   48  C   UNL     1      13.039  57.124  36.433  1.00  0.00     0.148 A 
ATOM     49  HN  UNL     1      13.400  59.136  36.323  1.00  0.00     0.167 HD
HETATM   50  N   UNL     1      11.809  57.645  36.992  1.00  0.00    -0.080 NA
HETATM   51  N   UNL     1      12.962  54.661  36.395  1.00  0.00    -0.346 N 
HETATM   52  C   UNL     1      13.837  53.731  35.985  1.00  0.00     0.188 A 
ATOM     53  HN  UNL     1      12.039  54.486  36.794  1.00  0.00     0.167 HD
ENDBRANCH  22  41
TORSDOF 4
ENDMDL
MODEL 4
REMARK VINA RESULT:    -9.262      1.892      2.203
REMARK INTER + INTRA:         -12.005
REMARK INTER:                 -10.936
REMARK INTRA:                  -1.070
REMARK UNBOUND:                -1.119
REMARK  4 active torsions:
REMARK  status: ('A' for Active; 'I' for Inactive)
REMARK    1  A    between atoms: N_13  and  C_14 
REMARK    2  A    between atoms: C_24  and  O_25 
REMARK    3  A    between atoms: C_32  and  O_33 
REMARK    4  A    between atoms: C_36  and  N_37 
ROOT
HETATM    1  C   UNL     1      15.712  47.748  38.077  1.00  0.00     0.180 C 
HETATM    2  C   UNL     1      16.581  47.888  36.804  1.00  0.00     0.216 C 
HETATM    3  C   UNL     1      16.851  52.387  36.519  1.00  0.00     0.198 C 
HETATM    4  C   UNL     1      15.709  53.887  35.037  1.00  0.00     0.262 C 
HETATM    5  O   UNL     1      14.825  53.569  36.132  1.00  0.00    -0.353 OA
HETATM    6  C   UNL     1      15.495  52.664  37.028  1.00  0.00     0.180 C 
HETATM    7  C   UNL     1      15.457  53.304  38.449  1.00  0.00     0.216 C 
HETATM    8  O   UNL     1      16.495  52.733  39.268  1.00  0.00    -0.287 OA
HETATM    9  P   UNL     1      15.875  52.019  40.691  1.00  0.00     0.408 P 
HETATM   10  O   UNL     1      17.102  51.629  41.465  1.00  0.00    -0.624 OA
HETATM   11  O   UNL     1      14.882  52.789  41.537  1.00  0.00    -0.624 OA
HETATM   12  O   UNL     1      15.100  50.590  40.128  1.00  0.00    -0.277 OA
HETATM   13  C   UNL     1      15.925  49.693  39.350  1.00  0.00     0.215 C 
HETATM   14  C   UNL     1      15.033  49.055  38.366  1.00  0.00     0.183 C 
HETATM   15  O   UNL     1      17.579  48.993  37.023  1.00  0.00    -0.287 OA
HETATM   16  P   UNL     1      17.960  50.030  35.773  1.00  0.00     0.408 P 
HETATM   17  O   UNL     1      17.811  49.280  34.457  1.00  0.00    -0.624 OA
HETATM   18  O   UNL     1      19.320  50.680  35.924  1.00  0.00    -0.624 OA
HETATM   19  O   UNL     1      16.681  51.141  35.759  1.00  0.00    -0.279 OA
HETATM   20  C   UNL     1      17.094  53.513  35.603  1.00  0.00     0.199 C 
HETATM   21  O   UNL     1      16.502  47.478  39.196  1.00  0.00    -0.353 OA
HETATM   22  C   UNL     1      16.400  48.535  40.189  1.00  0.00     0.263 C 
ENDROOT
BRANCH   4  23
HETATM   23  N   UNL     1      15.733  55.293  34.932  1.00  0.00    -0.297 N 
HETATM   24  C   UNL     1      15.049  56.312  35.330  1.00  0.00     0.146 A 
HETATM   25  C   UNL     1      15.636  57.465  34.896  1.00  0.00     0.146 A 
HETATM   26  N   UNL     1      13.804  56.276  36.139  1.00  0.00    -0.314 N 
HETATM   27  C   UNL     1      14.954  58.787  35.279  1.00  0.00     0.278 A 
HETATM   28  N   UNL     1      16.733  57.114  34.213  1.00  0.00    -0.345 N 
HETATM   29  N   UNL     1      13.757  58.756  36.057  1.00  0.00    -0.295 N 
HETATM   30  O   UNL     1      15.392  59.846  34.949  1.00  0.00    -0.265 OA
HETATM   31  C   UNL     1      13.165  57.509  36.490  1.00  0.00     0.196 A 
ATOM     32  HN  UNL     1      13.307  59.635  36.314  1.00  0.00     0.171 HD
HETATM   33  N   UNL     1      11.931  57.472  37.280  1.00  0.00    -0.063 NA
HETATM   34  C   UNL     1      16.807  55.754  34.235  1.00  0.00     0.188 A 
ATOM     35  HN  UNL     1      17.392  57.748  33.760  1.00  0.00     0.167 HD
ATOM     36  HN  UNL     1      13.409  55.385  36.440  1.00  0.00     0.170 HD
ENDBRANCH   4  23
BRANCH  20  37
HETATM   37  O   UNL     1      18.028  53.221  34.581  1.00  0.00    -0.388 OA
ATOM     38  HO  UNL     1      18.251  53.989  34.069  1.00  0.00     0.210 HD
ENDBRANCH  20  37
BRANCH  14  39
HETATM   39  O   UNL     1      13.757  48.742  38.932  1.00  0.00    -0.390 OA
ATOM     40  HO  UNL     1      13.851  48.805  39.876  1.00  0.00     0.210 HD
ENDBRANCH  14  39
BRANCH  22  41
HETATM   41  N   UNL     1      17.728  48.673  40.718  1.00  0.00    -0.297 N 
HETATM   42  C   UNL     1      17.999  48.322  41.998  1.00  0.00     0.142 A 
HETATM   43  N   UNL     1      17.247  47.859  43.019  1.00  0.00    -0.336 N 
HETATM   44  C   UNL     1      19.312  48.523  42.187  1.00  0.00     0.119 A 
HETATM   45  C   UNL     1      17.815  47.601  44.235  1.00  0.00     0.183 A 
ATOM     46  HN  UNL     1      16.249  47.700  42.882  1.00  0.00     0.168 HD
HETATM   47  N   UNL     1      19.151  47.807  44.416  1.00  0.00    -0.339 N 
HETATM   48  C   UNL     1      19.884  48.265  43.402  1.00  0.00     0.148 A 
ATOM     49  HN  UNL     1      19.584  47.613  45.319  1.00  0.00     0.167 HD
HETATM   50  N   UNL     1      21.227  48.374  43.932  1.00  0.00    -0.080 NA
HETATM   51  N   UNL     1      19.857  48.978  41.043  1.00  0.00    -0.346 N 
HETATM   52  C   UNL     1      18.877  49.062  40.130  1.00  0.00     0.188 A 
ATOM     53  HN  UNL     1      20.839  49.215  40.897  1.00  0.00     0.167 HD
ENDBRANCH  22  41
TORSDOF 4
ENDMDL
MODEL 5
REMARK VINA RESULT:    -9.178      4.134      8.974
REMARK INTER + INTRA:         -11.906
REMARK INTER:                 -10.653
REMARK INTRA:                  -1.253
REMARK UNBOUND:                -1.119
REMARK  4 active torsions:
REMARK  status: ('A' for Active; 'I' for Inactive)
REMARK    1  A    between atoms: N_13  and  C_14 
REMARK    2  A    between atoms: C_24  and  O_25 
REMARK    3  A    between atoms: C_32  and  O_33 
REMARK    4  A    between atoms: C_36  and  N_37 
ROOT
HETATM    1  C   UNL     1      14.482  51.999  40.316  1.00  0.00     0.180 C 
HETATM    2  C   UNL     1      15.948  51.574  40.571  1.00  0.00     0.216 C 
HETATM    3  C   UNL     1      17.262  50.688  36.342  1.00  0.00     0.198 C 
HETATM    4  C   UNL     1      17.589  48.571  35.264  1.00  0.00     0.262 C 
HETATM    5  O   UNL     1      16.181  48.886  35.229  1.00  0.00    -0.353 OA
HETATM    6  C   UNL     1      15.968  50.153  35.878  1.00  0.00     0.180 C 
HETATM    7  C   UNL     1      15.214  51.071  34.869  1.00  0.00     0.216 C 
HETATM    8  O   UNL     1      15.400  52.452  35.233  1.00  0.00    -0.287 OA
HETATM    9  P   UNL     1      13.916  53.255  35.500  1.00  0.00     0.408 P 
HETATM   10  O   UNL     1      14.313  54.689  35.711  1.00  0.00    -0.624 OA
HETATM   11  O   UNL     1      12.801  53.111  34.484  1.00  0.00    -0.624 OA
HETATM   12  O   UNL     1      13.362  52.609  36.994  1.00  0.00    -0.277 OA
HETATM   13  C   UNL     1      14.281  52.721  38.105  1.00  0.00     0.215 C 
HETATM   14  C   UNL     1      14.056  51.537  38.953  1.00  0.00     0.183 C 
HETATM   15  O   UNL     1      16.814  52.166  39.491  1.00  0.00    -0.287 OA
HETATM   16  P   UNL     1      18.077  51.280  38.858  1.00  0.00     0.408 P 
HETATM   17  O   UNL     1      18.601  50.341  39.936  1.00  0.00    -0.624 OA
HETATM   18  O   UNL     1      19.168  52.136  38.248  1.00  0.00    -0.624 OA
HETATM   19  O   UNL     1      17.332  50.245  37.742  1.00  0.00    -0.279 OA
HETATM   20  C   UNL     1      18.235  49.946  35.524  1.00  0.00     0.199 C 
HETATM   21  O   UNL     1      14.359  53.390  40.299  1.00  0.00    -0.353 OA
HETATM   22  C   UNL     1      13.900  53.868  39.005  1.00  0.00     0.263 C 
ENDROOT
BRANCH   4  23
HETATM   23  N   UNL     1      17.962  48.243  33.945  1.00  0.00    -0.297 N 
HETATM   24  C   UNL     1      18.976  47.761  33.310  1.00  0.00     0.146 A 
HETATM   25  C   UNL     1      18.687  47.657  31.980  1.00  0.00     0.146 A 
HETATM   26  N   UNL     1      20.280  47.366  33.902  1.00  0.00    -0.314 N 
HETATM   27  C   UNL     1      19.787  47.097  31.065  1.00  0.00     0.278 A 
HETATM   28  N   UNL     1      17.432  48.091  31.817  1.00  0.00    -0.345 N 
HETATM   29  N   UNL     1      21.041  46.716  31.631  1.00  0.00    -0.295 N 
HETATM   30  O   UNL     1      19.629  46.967  29.890  1.00  0.00    -0.265 OA
HETATM   31  C   UNL     1      21.306  46.849  33.046  1.00  0.00     0.196 A 
ATOM     32  HN  UNL     1      21.769  46.341  31.022  1.00  0.00     0.171 HD
HETATM   33  N   UNL     1      22.597  46.470  33.631  1.00  0.00    -0.063 NA
HETATM   34  C   UNL     1      16.964  48.456  33.044  1.00  0.00     0.188 A 
ATOM     35  HN  UNL     1      16.919  48.140  30.936  1.00  0.00     0.167 HD
ATOM     36  HN  UNL     1      20.442  47.461  34.904  1.00  0.00     0.170 HD
ENDBRANCH   4  23
BRANCH  20  37
HETATM   37  O   UNL     1      19.510  49.831  36.127  1.00  0.00    -0.388 OA
ATOM     38  HO  UNL     1      19.540  49.138  36.776  1.00  0.00     0.210 HD
ENDBRANCH  20  37
BRANCH  14  39
HETATM   39  O   UNL     1      12.667  51.206  39.043  1.00  0.00    -0.390 OA
ATOM     40  HO  UNL     1      12.329  51.193  38.155  1.00  0.00     0.210 HD
ENDBRANCH  14  39
BRANCH  22  41
HETATM   41  N   UNL     1      14.632  55.084  38.782  1.00  0.00    -0.297 N 
HETATM   42  C   UNL     1      14.040  56.143  38.179  1.00  0.00     0.142 A 
HETATM   43  N   UNL     1      12.816  56.352  37.650  1.00  0.00    -0.336 N 
HETATM   44  C   UNL     1      14.948  57.130  38.147  1.00  0.00     0.119 A 
HETATM   45  C   UNL     1      12.504  57.556  37.082  1.00  0.00     0.183 A 
ATOM     46  HN  UNL     1      12.119  55.608  37.674  1.00  0.00     0.168 HD
HETATM   47  N   UNL     1      13.434  58.553  37.055  1.00  0.00    -0.339 N 
HETATM   48  C   UNL     1      14.640  58.336  37.581  1.00  0.00     0.148 A 
ATOM     49  HN  UNL     1      13.209  59.457  36.638  1.00  0.00     0.167 HD
HETATM   50  N   UNL     1      15.363  59.574  37.379  1.00  0.00    -0.080 NA
HETATM   51  N   UNL     1      16.084  56.703  38.730  1.00  0.00    -0.346 N 
HETATM   52  C   UNL     1      15.885  55.438  39.132  1.00  0.00     0.188 A 
ATOM     53  HN  UNL     1      16.941  57.244  38.847  1.00  0.00     0.167 HD
ENDBRANCH  22  41
TORSDOF 4
ENDMDL
MODEL 6
REMARK VINA RESULT:    -8.938      5.289      8.375
REMARK INTER + INTRA:         -11.625
REMARK INTER:                 -11.014
REMARK INTRA:                  -0.610
REMARK UNBOUND:                -1.119
REMARK  4 active torsions:
REMARK  status: ('A' for Active; 'I' for Inactive)
REMARK    1  A    between atoms: N_13  and  C_14 
REMARK    2  A    between atoms: C_24  and  O_25 
REMARK    3  A    between atoms: C_32  and  O_33 
REMARK    4  A    between atoms: C_36  and  N_37 
ROOT
HETATM    1  C   UNL     1      14.745  54.264  37.042  1.00  0.00     0.180 C 
HETATM    2  C   UNL     1      13.882  53.471  36.031  1.00  0.00     0.216 C 
HETATM    3  C   UNL     1      16.971  50.581  34.450  1.00  0.00     0.198 C 
HETATM    4  C   UNL     1      18.135  50.597  32.354  1.00  0.00     0.262 C 
HETATM    5  O   UNL     1      18.804  51.507  33.252  1.00  0.00    -0.353 OA
HETATM    6  C   UNL     1      18.114  51.513  34.514  1.00  0.00     0.180 C 
HETATM    7  C   UNL     1      19.161  51.176  35.618  1.00  0.00     0.216 C 
HETATM    8  O   UNL     1      18.488  50.686  36.794  1.00  0.00    -0.287 OA
HETATM    9  P   UNL     1      18.846  51.622  38.178  1.00  0.00     0.408 P 
HETATM   10  O   UNL     1      18.187  50.872  39.302  1.00  0.00    -0.624 OA
HETATM   11  O   UNL     1      20.287  51.971  38.487  1.00  0.00    -0.624 OA
HETATM   12  O   UNL     1      17.987  53.088  37.915  1.00  0.00    -0.277 OA
HETATM   13  C   UNL     1      16.569  52.950  37.668  1.00  0.00     0.215 C 
HETATM   14  C   UNL     1      16.198  54.038  36.746  1.00  0.00     0.183 C 
HETATM   15  O   UNL     1      14.246  52.014  36.129  1.00  0.00    -0.287 OA
HETATM   16  P   UNL     1      14.325  51.081  34.749  1.00  0.00     0.408 P 
HETATM   17  O   UNL     1      13.338  51.635  33.730  1.00  0.00    -0.624 OA
HETATM   18  O   UNL     1      14.127  49.602  35.009  1.00  0.00    -0.624 OA
HETATM   19  O   UNL     1      15.842  51.451  34.092  1.00  0.00    -0.279 OA
HETATM   20  C   UNL     1      17.322  49.710  33.317  1.00  0.00     0.199 C 
HETATM   21  O   UNL     1      14.547  53.799  38.343  1.00  0.00    -0.353 OA
HETATM   22  C   UNL     1      15.773  53.262  38.909  1.00  0.00     0.263 C 
ENDROOT
BRANCH   4  23
HETATM   23  N   UNL     1      19.127  49.743  31.830  1.00  0.00    -0.297 N 
HETATM   24  C   UNL     1      19.229  48.758  31.003  1.00  0.00     0.146 A 
HETATM   25  C   UNL     1      20.532  48.365  30.904  1.00  0.00     0.146 A 
HETATM   26  N   UNL     1      18.117  48.120  30.253  1.00  0.00    -0.314 N 
HETATM   27  C   UNL     1      20.842  47.196  29.957  1.00  0.00     0.278 A 
HETATM   28  N   UNL     1      21.245  49.165  31.707  1.00  0.00    -0.345 N 
HETATM   29  N   UNL     1      19.775  46.580  29.234  1.00  0.00    -0.295 N 
HETATM   30  O   UNL     1      21.949  46.782  29.802  1.00  0.00    -0.265 OA
HETATM   31  C   UNL     1      18.407  47.026  29.374  1.00  0.00     0.196 A 
ATOM     32  HN  UNL     1      19.984  45.807  28.602  1.00  0.00     0.171 HD
HETATM   33  N   UNL     1      17.307  46.390  28.642  1.00  0.00    -0.063 NA
HETATM   34  C   UNL     1      20.375  50.038  32.288  1.00  0.00     0.188 A 
ATOM     35  HN  UNL     1      22.254  49.128  31.856  1.00  0.00     0.167 HD
ATOM     36  HN  UNL     1      17.160  48.456  30.362  1.00  0.00     0.170 HD
ENDBRANCH   4  23
BRANCH  20  37
HETATM   37  O   UNL     1      16.200  49.123  32.685  1.00  0.00    -0.388 OA
ATOM     38  HO  UNL     1      15.385  49.527  32.956  1.00  0.00     0.210 HD
ENDBRANCH  20  37
BRANCH  14  39
HETATM   39  O   UNL     1      16.880  55.256  37.063  1.00  0.00    -0.390 OA
ATOM     40  HO  UNL     1      17.494  55.054  37.759  1.00  0.00     0.210 HD
ENDBRANCH  14  39
BRANCH  22  41
HETATM   41  N   UNL     1      15.358  52.116  39.669  1.00  0.00    -0.297 N 
HETATM   42  C   UNL     1      15.366  50.881  39.110  1.00  0.00     0.142 A 
HETATM   43  N   UNL     1      15.667  50.414  37.880  1.00  0.00    -0.336 N 
HETATM   44  C   UNL     1      14.972  50.022  40.062  1.00  0.00     0.119 A 
HETATM   45  C   UNL     1      15.565  49.080  37.603  1.00  0.00     0.183 A 
ATOM     46  HN  UNL     1      15.971  51.061  37.152  1.00  0.00     0.168 HD
HETATM   47  N   UNL     1      15.164  48.214  38.577  1.00  0.00    -0.339 N 
HETATM   48  C   UNL     1      14.870  48.686  39.789  1.00  0.00     0.148 A 
ATOM     49  HN  UNL     1      15.090  47.215  38.381  1.00  0.00     0.167 HD
HETATM   50  N   UNL     1      14.481  47.522  40.558  1.00  0.00    -0.080 NA
HETATM   51  N   UNL     1      14.733  50.702  41.199  1.00  0.00    -0.346 N 
HETATM   52  C   UNL     1      14.981  51.998  40.958  1.00  0.00     0.188 A 
ATOM     53  HN  UNL     1      14.420  50.303  42.085  1.00  0.00     0.167 HD
ENDBRANCH  22  41
TORSDOF 4
ENDMDL
