REMARK  9 active torsions:
REMARK  status: ('A' for Active; 'I' for Inactive)
REMARK       I    between atoms: C_2  and  N_4 
REMARK    1  A    between atoms: N_4  and  C_5 
REMARK    2  A    between atoms: C_6  and  O_7 
REMARK    3  A    between atoms: C_8  and  O_9 
REMARK    4  A    between atoms: C_10  and  C_11 
REMARK    5  A    between atoms: C_11  and  O_12 
REMARK    6  A    between atoms: C_14  and  O_15 
REMARK    7  A    between atoms: O_15  and  C_16 
REMARK    8  A    between atoms: C_16  and  C_17 
REMARK    9  A    between atoms: C_17  and  C_18 
ROOT
HETATM    1  C   UNL     1      -0.882   0.164   0.232  1.00  0.00     0.170 C 
HETATM    2  C   UNL     1      -0.644  -0.278   1.689  1.00  0.00     0.177 C 
HETATM    3  C   UNL     1       0.856  -0.289   1.996  1.00  0.00     0.180 C 
HETATM    4  C   UNL     1       1.431   1.139   1.784  1.00  0.00     0.179 C 
HETATM    5  O   UNL     1       0.751   1.913   0.796  1.00  0.00    -0.349 OA
HETATM    6  C   UNL     1       0.215   1.148  -0.273  1.00  0.00     0.285 C 
ENDROOT
BRANCH   6   7
HETATM    7  O   UNL     1       1.257   0.447  -0.937  1.00  0.00    -0.359 OA
BRANCH   7   8
HETATM    8  C   UNL     1       0.960   0.248  -2.308  1.00  0.00     0.175 C 
BRANCH   8   9
HETATM    9  C   UNL     1       1.613  -1.049  -2.787  1.00  0.00     0.065 C 
BRANCH   9  10
HETATM   10  C   UNL     1       1.079  -2.226  -2.014  1.00  0.00    -0.055 A 
HETATM   11  C   UNL     1       1.793  -2.727  -0.894  1.00  0.00     0.010 A 
HETATM   12  C   UNL     1       1.250  -3.749  -0.095  1.00  0.00     0.039 A 
HETATM   13  C   UNL     1      -0.005  -4.243  -0.436  1.00  0.00     0.085 A 
HETATM   14  O   UNL     1      -0.697  -5.170   0.178  1.00  0.00    -0.322 OA
HETATM   15  C   UNL     1      -0.696  -3.769  -1.516  1.00  0.00    -0.000 A 
HETATM   16  C   UNL     1      -1.836  -5.317  -0.474  1.00  0.00     0.143 A 
HETATM   17  C   UNL     1      -1.889  -4.449  -1.560  1.00  0.00     0.039 A 
HETATM   18  C   UNL     1      -0.189  -2.762  -2.333  1.00  0.00     0.021 A 
ENDBRANCH   9  10
ENDBRANCH   8   9
ENDBRANCH   7   8
ENDBRANCH   6   7
BRANCH   1  19
HETATM   19  N   UNL     1      -2.207   0.782   0.117  1.00  0.00    -0.349 N 
HETATM   20  C   UNL     1      -3.377   0.043  -0.259  1.00  0.00     0.214 C 
HETATM   21  C   UNL     1      -4.712   0.712  -0.263  1.00  0.00     0.117 C 
HETATM   22  O   UNL     1      -3.296  -1.182  -0.550  1.00  0.00    -0.274 OA
HETATM   23  H   UNL     1      -2.327   1.766   0.453  1.00  0.00     0.163 HD
ENDBRANCH   1  19
BRANCH   2  24
HETATM   24  O   UNL     1      -1.189  -1.560   1.878  1.00  0.00    -0.391 OA
HETATM   25  H   UNL     1      -1.352  -1.666   2.852  1.00  0.00     0.210 HD
ENDBRANCH   2  24
BRANCH   4  26
HETATM   26  C   UNL     1       2.947   1.115   1.518  1.00  0.00     0.198 C 
BRANCH  26  27
HETATM   27  O   UNL     1       3.440   2.418   1.363  1.00  0.00    -0.398 OA
HETATM   28  H   UNL     1       3.265   2.679   0.421  1.00  0.00     0.209 HD
ENDBRANCH  26  27
ENDBRANCH   4  26
BRANCH   3  29
HETATM   29  O   UNL     1       1.060  -0.702   3.323  1.00  0.00    -0.390 OA
HETATM   30  H   UNL     1       1.995  -1.028   3.384  1.00  0.00     0.210 HD
ENDBRANCH   3  29
TORSDOF 9
