REMARK  9 active torsions:
REMARK  status: ('A' for Active; 'I' for Inactive)
REMARK       I    between atoms: C_2  and  N_4 
REMARK    1  A    between atoms: N_4  and  C_6 
REMARK    2  A    between atoms: C_7  and  O_8 
REMARK    3  A    between atoms: C_10  and  O_11 
REMARK    4  A    between atoms: C_13  and  C_14 
REMARK    5  A    between atoms: C_14  and  O_15 
REMARK    6  A    between atoms: C_18  and  O_19 
REMARK    7  A    between atoms: O_19  and  C_20 
REMARK    8  A    between atoms: C_20  and  C_21 
REMARK    9  A    between atoms: C_21  and  C_22 
ROOT
HETATM    1  C   UNL     1     -29.732 -62.768 -13.282  1.00  0.00     0.170 C 
HETATM    2  C   UNL     1     -28.308 -62.819 -13.817  1.00  0.00     0.177 C 
HETATM    3  C   UNL     1     -27.545 -63.936 -13.117  1.00  0.00     0.180 C 
HETATM    4  C   UNL     1     -28.287 -65.269 -13.257  1.00  0.00     0.179 C 
HETATM    5  O   UNL     1     -29.596 -65.121 -12.704  1.00  0.00    -0.349 OA
HETATM    6  C   UNL     1     -30.382 -64.172 -13.409  1.00  0.00     0.285 C 
ENDROOT
BRANCH   6   7
HETATM    7  O   UNL     1     -31.648 -64.127 -12.843  1.00  0.00    -0.359 OA
BRANCH   7   8
HETATM    8  C   UNL     1     -32.597 -65.137 -13.264  1.00  0.00     0.175 C 
BRANCH   8   9
HETATM    9  C   UNL     1     -33.335 -64.756 -14.531  1.00  0.00     0.065 C 
BRANCH   9  10
HETATM   10  C   UNL     1     -34.056 -63.422 -14.603  1.00  0.00    -0.056 A 
HETATM   11  C   UNL     1     -34.570 -62.787 -13.470  1.00  0.00     0.017 A 
HETATM   12  C   UNL     1     -35.230 -61.565 -13.607  1.00  0.00    -0.022 A 
HETATM   13  C   UNL     1     -35.454 -61.038 -14.872  1.00  0.00     0.075 A 
HETATM   14  C   UNL     1     -35.828 -60.633 -12.579  1.00  0.00     0.068 C 
HETATM   15  O   UNL     1     -36.081 -59.827 -14.840  1.00  0.00    -0.350 OA
HETATM   16  C   UNL     1     -34.994 -61.648 -16.008  1.00  0.00     0.038 A 
HETATM   17  C   UNL     1     -36.467 -59.574 -13.457  1.00  0.00     0.180 C 
HETATM   18  C   UNL     1     -34.296 -62.845 -15.844  1.00  0.00     0.010 A 
ENDBRANCH   9  10
ENDBRANCH   8   9
ENDBRANCH   7   8
ENDBRANCH   6   7
BRANCH   1  19
HETATM   19  N   UNL     1     -30.498 -61.745 -13.960  1.00  0.00    -0.349 N 
HETATM   20  C   UNL     1     -31.162 -60.729 -13.394  1.00  0.00     0.214 C 
HETATM   21  C   UNL     1     -31.916 -59.810 -14.286  1.00  0.00     0.117 C 
HETATM   22  O   UNL     1     -31.136 -60.569 -12.194  1.00  0.00    -0.274 OA
ATOM     23  HN  UNL     1     -30.536 -61.804 -14.978  1.00  0.00     0.163 HD
ENDBRANCH   1  19
BRANCH   4  24
HETATM   24  C   UNL     1     -27.657 -66.357 -12.473  1.00  0.00     0.198 C 
BRANCH  24  25
HETATM   25  O   UNL     1     -28.309 -67.631 -12.712  1.00  0.00    -0.398 OA
ATOM     26  HO  UNL     1     -27.905 -68.329 -12.209  1.00  0.00     0.209 HD
ENDBRANCH  24  25
ENDBRANCH   4  24
BRANCH   2  27
HETATM   27  O   UNL     1     -27.651 -61.558 -13.631  1.00  0.00    -0.391 OA
ATOM     28  HO  UNL     1     -28.127 -60.861 -14.068  1.00  0.00     0.210 HD
ENDBRANCH   2  27
BRANCH   3  29
HETATM   29  O   UNL     1     -26.259 -64.105 -13.695  1.00  0.00    -0.390 OA
ATOM     30  HO  UNL     1     -25.799 -63.278 -13.608  1.00  0.00     0.210 HD
ENDBRANCH   3  29
TORSDOF 9
