REMARK  6 active torsions:
REMARK  status: ('A' for Active; 'I' for Inactive)
REMARK    1  A    between atoms: C_1  and  C_6 
REMARK    2  A    between atoms: C_1  and  C_2 
REMARK    3  A    between atoms: C_4  and  C_8 
REMARK    4  A    between atoms: C_5  and  C_6 
REMARK    5  A    between atoms: C_6  and  C_7 
REMARK    6  A    between atoms: C_7  and  C_8 
ROOT
HETATM    1  C   UNL     1      20.186 -26.264   8.147  1.00  0.00     0.094 C 
ENDROOT
BRANCH   1   2
HETATM    2  C   UNL     1      21.343 -25.877   7.172  1.00  0.00     0.015 C 
BRANCH   2   3
HETATM    3  C   UNL     1      21.719 -24.422   7.199  1.00  0.00    -0.004 C 
HETATM    4  C   UNL     1      22.990 -24.213   6.374  1.00  0.00     0.005 C 
ENDBRANCH   2   3
ENDBRANCH   1   2
BRANCH   1   5
HETATM    5  C   UNL     1      19.975 -27.796   7.900  1.00  0.00     0.177 C 
HETATM    6  O   UNL     1      18.825 -28.117   7.308  1.00  0.00    -0.648 OA
HETATM    7  O   UNL     1      20.790 -28.663   8.167  1.00  0.00    -0.648 OA
ENDBRANCH   1   5
BRANCH   1   8
HETATM    8  C   UNL     1      18.943 -25.393   7.930  1.00  0.00     0.106 C 
BRANCH   8   9
HETATM    9  C   UNL     1      19.014 -24.019   8.649  1.00  0.00     0.225 C 
HETATM   10  O   UNL     1      19.627 -23.957   9.700  1.00  0.00    -0.286 OA
BRANCH   9  11
HETATM   11  C   UNL     1      18.337 -22.993   8.013  1.00  0.00     0.246 C 
HETATM   12  O   UNL     1      18.364 -21.844   8.472  1.00  0.00    -0.642 OA
HETATM   13  O   UNL     1      17.605 -23.194   6.935  1.00  0.00    -0.642 OA
ENDBRANCH   9  11
ENDBRANCH   8   9
ENDBRANCH   1   8
TORSDOF 6
