MODEL 1
REMARK VINA RESULT:    -5.471      0.000      0.000
REMARK INTER + INTRA:          -6.209
REMARK INTER:                  -6.111
REMARK INTRA:                  -0.099
REMARK UNBOUND:                -0.099
REMARK  2 active torsions:
REMARK  status: ('A' for Active; 'I' for Inactive)
REMARK    1  A    between atoms: P_2  and  C_5 
REMARK    2  A    between atoms: C_5  and  P_6 
ROOT
HETATM    1  C   UNL     1      -4.985   5.206  -5.044  1.00  0.00     0.291 C 
ENDROOT
BRANCH   1   2
HETATM    2  P   UNL     1      -3.606   6.287  -5.508  1.00  0.00     0.272 P 
HETATM    3  O   UNL     1      -2.574   6.250  -4.404  1.00  0.00    -0.639 OA
HETATM    4  O   UNL     1      -4.281   7.661  -5.619  1.00  0.00    -0.639 OA
HETATM    5  O   UNL     1      -3.048   5.836  -6.836  1.00  0.00    -0.639 OA
ENDBRANCH   1   2
BRANCH   1   6
HETATM    6  P   UNL     1      -4.654   3.475  -4.585  1.00  0.00     0.272 P 
HETATM    7  O   UNL     1      -4.483   3.421  -3.104  1.00  0.00    -0.639 OA
HETATM    8  O   UNL     1      -5.899   2.757  -5.026  1.00  0.00    -0.639 OA
HETATM    9  O   UNL     1      -3.452   2.978  -5.310  1.00  0.00    -0.639 OA
ENDBRANCH   1   6
TORSDOF 2
ENDMDL
MODEL 2
REMARK VINA RESULT:    -5.465      0.050      3.973
REMARK INTER + INTRA:          -6.203
REMARK INTER:                  -6.101
REMARK INTRA:                  -0.102
REMARK UNBOUND:                -0.099
REMARK  2 active torsions:
REMARK  status: ('A' for Active; 'I' for Inactive)
REMARK    1  A    between atoms: P_2  and  C_5 
REMARK    2  A    between atoms: C_5  and  P_6 
ROOT
HETATM    1  C   UNL     1      -5.005   5.175  -5.116  1.00  0.00     0.291 C 
ENDROOT
BRANCH   1   2
HETATM    2  P   UNL     1      -4.683   3.474  -4.579  1.00  0.00     0.272 P 
HETATM    3  O   UNL     1      -3.441   2.975  -5.282  1.00  0.00    -0.639 OA
HETATM    4  O   UNL     1      -5.944   2.732  -5.043  1.00  0.00    -0.639 OA
HETATM    5  O   UNL     1      -4.547   3.445  -3.075  1.00  0.00    -0.639 OA
ENDBRANCH   1   2
BRANCH   1   6
HETATM    6  P   UNL     1      -3.606   6.268  -5.521  1.00  0.00     0.272 P 
HETATM    7  O   UNL     1      -3.053   5.832  -6.836  1.00  0.00    -0.639 OA
HETATM    8  O   UNL     1      -4.245   7.626  -5.612  1.00  0.00    -0.639 OA
HETATM    9  O   UNL     1      -2.588   6.215  -4.436  1.00  0.00    -0.639 OA
ENDBRANCH   1   6
TORSDOF 2
ENDMDL
MODEL 3
REMARK VINA RESULT:    -5.440      1.128      1.809
REMARK INTER + INTRA:          -6.175
REMARK INTER:                  -6.155
REMARK INTRA:                  -0.019
REMARK UNBOUND:                -0.099
REMARK  2 active torsions:
REMARK  status: ('A' for Active; 'I' for Inactive)
REMARK    1  A    between atoms: P_2  and  C_5 
REMARK    2  A    between atoms: C_5  and  P_6 
ROOT
HETATM    1  C   UNL     1      -4.058   5.259  -6.448  1.00  0.00     0.291 C 
ENDROOT
BRANCH   1   2
HETATM    2  P   UNL     1      -3.485   6.880  -5.872  1.00  0.00     0.272 P 
HETATM    3  O   UNL     1      -2.382   6.667  -4.860  1.00  0.00    -0.639 OA
HETATM    4  O   UNL     1      -4.748   7.471  -5.230  1.00  0.00    -0.639 OA
HETATM    5  O   UNL     1      -3.033   7.697  -7.058  1.00  0.00    -0.639 OA
ENDBRANCH   1   2
BRANCH   1   6
HETATM    6  P   UNL     1      -4.592   4.012  -5.233  1.00  0.00     0.272 P 
HETATM    7  O   UNL     1      -5.883   3.434  -5.712  1.00  0.00    -0.639 OA
HETATM    8  O   UNL     1      -3.484   2.998  -5.271  1.00  0.00    -0.639 OA
HETATM    9  O   UNL     1      -4.719   4.635  -3.887  1.00  0.00    -0.639 OA
ENDBRANCH   1   6
TORSDOF 2
ENDMDL
MODEL 4
REMARK VINA RESULT:    -5.426      0.146      3.931
REMARK INTER + INTRA:          -6.159
REMARK INTER:                  -6.122
REMARK INTRA:                  -0.037
REMARK UNBOUND:                -0.099
REMARK  2 active torsions:
REMARK  status: ('A' for Active; 'I' for Inactive)
REMARK    1  A    between atoms: P_2  and  C_5 
REMARK    2  A    between atoms: C_5  and  P_6 
ROOT
HETATM    1  C   UNL     1      -4.985   5.224  -4.874  1.00  0.00     0.291 C 
ENDROOT
BRANCH   1   2
HETATM    2  P   UNL     1      -4.734   3.455  -4.566  1.00  0.00     0.272 P 
HETATM    3  O   UNL     1      -5.956   2.706  -5.044  1.00  0.00    -0.639 OA
HETATM    4  O   UNL     1      -4.587   3.400  -3.039  1.00  0.00    -0.639 OA
HETATM    5  O   UNL     1      -3.471   3.005  -5.259  1.00  0.00    -0.639 OA
ENDBRANCH   1   2
BRANCH   1   6
HETATM    6  P   UNL     1      -3.611   6.224  -5.531  1.00  0.00     0.272 P 
HETATM    7  O   UNL     1      -3.252   5.678  -6.873  1.00  0.00    -0.639 OA
HETATM    8  O   UNL     1      -4.206   7.601  -5.634  1.00  0.00    -0.639 OA
HETATM    9  O   UNL     1      -2.462   6.194  -4.585  1.00  0.00    -0.639 OA
ENDBRANCH   1   6
TORSDOF 2
ENDMDL
MODEL 5
REMARK VINA RESULT:    -5.381      0.094      1.467
REMARK INTER + INTRA:          -6.109
REMARK INTER:                  -6.030
REMARK INTRA:                  -0.079
REMARK UNBOUND:                -0.099
REMARK  2 active torsions:
REMARK  status: ('A' for Active; 'I' for Inactive)
REMARK    1  A    between atoms: P_2  and  C_5 
REMARK    2  A    between atoms: C_5  and  P_6 
ROOT
HETATM    1  C   UNL     1      -5.015   5.188  -5.004  1.00  0.00     0.291 C 
ENDROOT
BRANCH   1   2
HETATM    2  P   UNL     1      -3.668   6.263  -5.569  1.00  0.00     0.272 P 
HETATM    3  O   UNL     1      -3.160   5.741  -6.893  1.00  0.00    -0.639 OA
HETATM    4  O   UNL     1      -2.627   6.109  -4.452  1.00  0.00    -0.639 OA
HETATM    5  O   UNL     1      -4.172   7.683  -5.662  1.00  0.00    -0.639 OA
ENDBRANCH   1   2
BRANCH   1   6
HETATM    6  P   UNL     1      -4.657   3.458  -4.564  1.00  0.00     0.272 P 
HETATM    7  O   UNL     1      -4.459   3.395  -3.086  1.00  0.00    -0.639 OA
HETATM    8  O   UNL     1      -5.902   2.730  -4.987  1.00  0.00    -0.639 OA
HETATM    9  O   UNL     1      -3.462   2.979  -5.313  1.00  0.00    -0.639 OA
ENDBRANCH   1   6
TORSDOF 2
ENDMDL
MODEL 6
REMARK VINA RESULT:    -5.368      0.154      3.894
REMARK INTER + INTRA:          -6.094
REMARK INTER:                  -6.063
REMARK INTRA:                  -0.031
REMARK UNBOUND:                -0.099
REMARK  2 active torsions:
REMARK  status: ('A' for Active; 'I' for Inactive)
REMARK    1  A    between atoms: P_2  and  C_5 
REMARK    2  A    between atoms: C_5  and  P_6 
ROOT
HETATM    1  C   UNL     1      -5.053   5.095  -5.042  1.00  0.00     0.291 C 
ENDROOT
BRANCH   1   2
HETATM    2  P   UNL     1      -4.714   3.388  -4.533  1.00  0.00     0.272 P 
HETATM    3  O   UNL     1      -4.403   3.381  -3.053  1.00  0.00    -0.639 OA
HETATM    4  O   UNL     1      -3.487   3.024  -5.380  1.00  0.00    -0.639 OA
HETATM    5  O   UNL     1      -5.902   2.523  -4.878  1.00  0.00    -0.639 OA
ENDBRANCH   1   2
BRANCH   1   6
HETATM    6  P   UNL     1      -3.670   6.178  -5.525  1.00  0.00     0.272 P 
HETATM    7  O   UNL     1      -3.186   5.728  -6.863  1.00  0.00    -0.639 OA
HETATM    8  O   UNL     1      -4.306   7.538  -5.594  1.00  0.00    -0.639 OA
HETATM    9  O   UNL     1      -2.599   6.127  -4.492  1.00  0.00    -0.639 OA
ENDBRANCH   1   6
TORSDOF 2
ENDMDL
MODEL 7
REMARK VINA RESULT:    -5.339      0.193      1.447
REMARK INTER + INTRA:          -6.062
REMARK INTER:                  -6.020
REMARK INTRA:                  -0.042
REMARK UNBOUND:                -0.099
REMARK  2 active torsions:
REMARK  status: ('A' for Active; 'I' for Inactive)
REMARK    1  A    between atoms: P_2  and  C_5 
REMARK    2  A    between atoms: C_5  and  P_6 
ROOT
HETATM    1  C   UNL     1      -4.983   5.282  -5.054  1.00  0.00     0.291 C 
ENDROOT
BRANCH   1   2
HETATM    2  P   UNL     1      -3.569   6.275  -5.605  1.00  0.00     0.272 P 
HETATM    3  O   UNL     1      -4.028   7.702  -5.792  1.00  0.00    -0.639 OA
HETATM    4  O   UNL     1      -3.194   5.611  -6.937  1.00  0.00    -0.639 OA
HETATM    5  O   UNL     1      -2.454   6.154  -4.594  1.00  0.00    -0.639 OA
ENDBRANCH   1   2
BRANCH   1   6
HETATM    6  P   UNL     1      -4.724   3.548  -4.561  1.00  0.00     0.272 P 
HETATM    7  O   UNL     1      -4.656   3.504  -3.071  1.00  0.00    -0.639 OA
HETATM    8  O   UNL     1      -5.953   2.855  -5.079  1.00  0.00    -0.639 OA
HETATM    9  O   UNL     1      -3.488   3.017  -5.198  1.00  0.00    -0.639 OA
ENDBRANCH   1   6
TORSDOF 2
ENDMDL
MODEL 8
REMARK VINA RESULT:    -4.905      2.104      4.189
REMARK INTER + INTRA:          -5.578
REMARK INTER:                  -5.501
REMARK INTRA:                  -0.077
REMARK UNBOUND:                -0.099
REMARK  2 active torsions:
REMARK  status: ('A' for Active; 'I' for Inactive)
REMARK    1  A    between atoms: P_2  and  C_5 
REMARK    2  A    between atoms: C_5  and  P_6 
ROOT
HETATM    1  C   UNL     1      -5.422   2.714  -4.449  1.00  0.00     0.291 C 
ENDROOT
BRANCH   1   2
HETATM    2  P   UNL     1      -5.830   2.756  -2.683  1.00  0.00     0.272 P 
HETATM    3  O   UNL     1      -6.272   1.374  -2.259  1.00  0.00    -0.639 OA
HETATM    4  O   UNL     1      -6.982   3.769  -2.631  1.00  0.00    -0.639 OA
HETATM    5  O   UNL     1      -4.630   3.243  -1.907  1.00  0.00    -0.639 OA
ENDBRANCH   1   2
BRANCH   1   6
HETATM    6  P   UNL     1      -4.207   3.895  -5.117  1.00  0.00     0.272 P 
HETATM    7  O   UNL     1      -4.534   5.244  -4.567  1.00  0.00    -0.639 OA
HETATM    8  O   UNL     1      -2.899   3.382  -4.584  1.00  0.00    -0.639 OA
HETATM    9  O   UNL     1      -4.240   3.871  -6.605  1.00  0.00    -0.639 OA
ENDBRANCH   1   6
TORSDOF 2
ENDMDL
MODEL 9
REMARK VINA RESULT:    -4.905      1.396      2.279
REMARK INTER + INTRA:          -5.577
REMARK INTER:                  -5.553
REMARK INTRA:                  -0.024
REMARK UNBOUND:                -0.099
REMARK  2 active torsions:
REMARK  status: ('A' for Active; 'I' for Inactive)
REMARK    1  A    between atoms: P_2  and  C_5 
REMARK    2  A    between atoms: C_5  and  P_6 
ROOT
HETATM    1  C   UNL     1      -4.106   4.992  -5.910  1.00  0.00     0.291 C 
ENDROOT
BRANCH   1   2
HETATM    2  P   UNL     1      -3.140   6.511  -5.692  1.00  0.00     0.272 P 
HETATM    3  O   UNL     1      -2.030   6.525  -6.718  1.00  0.00    -0.639 OA
HETATM    4  O   UNL     1      -2.600   6.361  -4.263  1.00  0.00    -0.639 OA
HETATM    5  O   UNL     1      -4.057   7.703  -5.815  1.00  0.00    -0.639 OA
ENDBRANCH   1   2
BRANCH   1   6
HETATM    6  P   UNL     1      -5.608   4.733  -4.913  1.00  0.00     0.272 P 
HETATM    7  O   UNL     1      -6.541   5.863  -5.194  1.00  0.00    -0.639 OA
HETATM    8  O   UNL     1      -6.146   3.429  -5.433  1.00  0.00    -0.639 OA
HETATM    9  O   UNL     1      -5.251   4.641  -3.471  1.00  0.00    -0.639 OA
ENDBRANCH   1   6
TORSDOF 2
ENDMDL
MODEL 10
REMARK VINA RESULT:    -4.781      2.046      2.709
REMARK INTER + INTRA:          -5.439
REMARK INTER:                  -5.417
REMARK INTRA:                  -0.022
REMARK UNBOUND:                -0.099
REMARK  2 active torsions:
REMARK  status: ('A' for Active; 'I' for Inactive)
REMARK    1  A    between atoms: P_2  and  C_5 
REMARK    2  A    between atoms: C_5  and  P_6 
ROOT
HETATM    1  C   UNL     1      -5.703   2.999  -4.603  1.00  0.00     0.291 C 
ENDROOT
BRANCH   1   2
HETATM    2  P   UNL     1      -4.263   3.945  -5.167  1.00  0.00     0.272 P 
HETATM    3  O   UNL     1      -3.018   3.318  -4.583  1.00  0.00    -0.639 OA
HETATM    4  O   UNL     1      -4.531   5.340  -4.584  1.00  0.00    -0.639 OA
HETATM    5  O   UNL     1      -4.246   3.971  -6.676  1.00  0.00    -0.639 OA
ENDBRANCH   1   2
BRANCH   1   6
HETATM    6  P   UNL     1      -6.028   2.838  -2.818  1.00  0.00     0.272 P 
HETATM    7  O   UNL     1      -7.273   3.603  -2.511  1.00  0.00    -0.639 OA
HETATM    8  O   UNL     1      -6.229   1.359  -2.637  1.00  0.00    -0.639 OA
HETATM    9  O   UNL     1      -4.858   3.330  -2.041  1.00  0.00    -0.639 OA
ENDBRANCH   1   6
TORSDOF 2
ENDMDL
MODEL 11
REMARK VINA RESULT:    -4.683      1.521      3.889
REMARK INTER + INTRA:          -5.329
REMARK INTER:                  -5.321
REMARK INTRA:                  -0.009
REMARK UNBOUND:                -0.099
REMARK  2 active torsions:
REMARK  status: ('A' for Active; 'I' for Inactive)
REMARK    1  A    between atoms: P_2  and  C_5 
REMARK    2  A    between atoms: C_5  and  P_6 
ROOT
HETATM    1  C   UNL     1      -4.179   4.588  -5.337  1.00  0.00     0.291 C 
ENDROOT
BRANCH   1   2
HETATM    2  P   UNL     1      -5.984   4.424  -5.273  1.00  0.00     0.272 P 
HETATM    3  O   UNL     1      -6.569   5.076  -6.504  1.00  0.00    -0.639 OA
HETATM    4  O   UNL     1      -6.343   5.189  -3.991  1.00  0.00    -0.639 OA
HETATM    5  O   UNL     1      -6.346   2.963  -5.164  1.00  0.00    -0.639 OA
ENDBRANCH   1   2
BRANCH   1   6
HETATM    6  P   UNL     1      -3.433   6.243  -5.484  1.00  0.00     0.272 P 
HETATM    7  O   UNL     1      -2.510   6.431  -4.326  1.00  0.00    -0.639 OA
HETATM    8  O   UNL     1      -2.681   6.168  -6.784  1.00  0.00    -0.639 OA
HETATM    9  O   UNL     1      -4.500   7.280  -5.529  1.00  0.00    -0.639 OA
ENDBRANCH   1   6
TORSDOF 2
ENDMDL
MODEL 12
REMARK VINA RESULT:    -4.653      1.698      2.083
REMARK INTER + INTRA:          -5.295
REMARK INTER:                  -5.226
REMARK INTRA:                  -0.069
REMARK UNBOUND:                -0.099
REMARK  2 active torsions:
REMARK  status: ('A' for Active; 'I' for Inactive)
REMARK    1  A    between atoms: P_2  and  C_5 
REMARK    2  A    between atoms: C_5  and  P_6 
ROOT
HETATM    1  C   UNL     1      -4.539   4.772  -4.931  1.00  0.00     0.291 C 
ENDROOT
BRANCH   1   2
HETATM    2  P   UNL     1      -3.563   6.205  -5.461  1.00  0.00     0.272 P 
HETATM    3  O   UNL     1      -2.472   6.446  -4.443  1.00  0.00    -0.639 OA
HETATM    4  O   UNL     1      -4.604   7.334  -5.466  1.00  0.00    -0.639 OA
HETATM    5  O   UNL     1      -3.017   5.950  -6.844  1.00  0.00    -0.639 OA
ENDBRANCH   1   2
BRANCH   1   6
HETATM    6  P   UNL     1      -6.233   4.558  -5.563  1.00  0.00     0.272 P 
HETATM    7  O   UNL     1      -6.586   3.113  -5.439  1.00  0.00    -0.639 OA
HETATM    8  O   UNL     1      -7.057   5.410  -4.637  1.00  0.00    -0.639 OA
HETATM    9  O   UNL     1      -6.317   5.040  -6.969  1.00  0.00    -0.639 OA
ENDBRANCH   1   6
TORSDOF 2
ENDMDL
MODEL 13
REMARK VINA RESULT:    -4.557      1.600      2.728
REMARK INTER + INTRA:          -5.188
REMARK INTER:                  -5.083
REMARK INTRA:                  -0.105
REMARK UNBOUND:                -0.099
REMARK  2 active torsions:
REMARK  status: ('A' for Active; 'I' for Inactive)
REMARK    1  A    between atoms: P_2  and  C_5 
REMARK    2  A    between atoms: C_5  and  P_6 
ROOT
HETATM    1  C   UNL     1      -5.485   4.525  -4.174  1.00  0.00     0.291 C 
ENDROOT
BRANCH   1   2
HETATM    2  P   UNL     1      -3.952   4.350  -5.126  1.00  0.00     0.272 P 
HETATM    3  O   UNL     1      -4.305   3.908  -6.528  1.00  0.00    -0.639 OA
HETATM    4  O   UNL     1      -3.200   3.259  -4.351  1.00  0.00    -0.639 OA
HETATM    5  O   UNL     1      -3.202   5.660  -5.105  1.00  0.00    -0.639 OA
ENDBRANCH   1   2
BRANCH   1   6
HETATM    6  P   UNL     1      -6.321   3.037  -3.539  1.00  0.00     0.272 P 
HETATM    7  O   UNL     1      -5.636   2.634  -2.276  1.00  0.00    -0.639 OA
HETATM    8  O   UNL     1      -7.723   3.513  -3.281  1.00  0.00    -0.639 OA
HETATM    9  O   UNL     1      -6.290   1.959  -4.566  1.00  0.00    -0.639 OA
ENDBRANCH   1   6
TORSDOF 2
ENDMDL
MODEL 14
REMARK VINA RESULT:    -4.538      1.601      4.086
REMARK INTER + INTRA:          -5.167
REMARK INTER:                  -5.075
REMARK INTRA:                  -0.093
REMARK UNBOUND:                -0.099
REMARK  2 active torsions:
REMARK  status: ('A' for Active; 'I' for Inactive)
REMARK    1  A    between atoms: P_2  and  C_5 
REMARK    2  A    between atoms: C_5  and  P_6 
ROOT
HETATM    1  C   UNL     1      -5.480   4.520  -4.161  1.00  0.00     0.291 C 
ENDROOT
BRANCH   1   2
HETATM    2  P   UNL     1      -6.414   3.067  -3.610  1.00  0.00     0.272 P 
HETATM    3  O   UNL     1      -7.844   3.483  -3.356  1.00  0.00    -0.639 OA
HETATM    4  O   UNL     1      -5.689   2.677  -2.314  1.00  0.00    -0.639 OA
HETATM    5  O   UNL     1      -6.304   1.981  -4.653  1.00  0.00    -0.639 OA
ENDBRANCH   1   2
BRANCH   1   6
HETATM    6  P   UNL     1      -3.957   4.292  -5.134  1.00  0.00     0.272 P 
HETATM    7  O   UNL     1      -3.197   5.575  -5.098  1.00  0.00    -0.639 OA
HETATM    8  O   UNL     1      -3.236   3.200  -4.394  1.00  0.00    -0.639 OA
HETATM    9  O   UNL     1      -4.298   3.878  -6.523  1.00  0.00    -0.639 OA
ENDBRANCH   1   6
TORSDOF 2
ENDMDL
MODEL 15
REMARK VINA RESULT:    -4.527      1.587      4.036
REMARK INTER + INTRA:          -5.155
REMARK INTER:                  -5.046
REMARK INTRA:                  -0.109
REMARK UNBOUND:                -0.099
REMARK  2 active torsions:
REMARK  status: ('A' for Active; 'I' for Inactive)
REMARK    1  A    between atoms: P_2  and  C_5 
REMARK    2  A    between atoms: C_5  and  P_6 
ROOT
HETATM    1  C   UNL     1      -5.494   4.460  -4.269  1.00  0.00     0.291 C 
ENDROOT
BRANCH   1   2
HETATM    2  P   UNL     1      -6.239   2.975  -3.541  1.00  0.00     0.272 P 
HETATM    3  O   UNL     1      -6.285   1.894  -4.597  1.00  0.00    -0.639 OA
HETATM    4  O   UNL     1      -7.643   3.462  -3.155  1.00  0.00    -0.639 OA
HETATM    5  O   UNL     1      -5.443   2.565  -2.327  1.00  0.00    -0.639 OA
ENDBRANCH   1   2
BRANCH   1   6
HETATM    6  P   UNL     1      -3.918   4.322  -5.171  1.00  0.00     0.272 P 
HETATM    7  O   UNL     1      -3.127   3.225  -4.541  1.00  0.00    -0.639 OA
HETATM    8  O   UNL     1      -4.349   3.963  -6.566  1.00  0.00    -0.639 OA
HETATM    9  O   UNL     1      -3.199   5.626  -5.140  1.00  0.00    -0.639 OA
ENDBRANCH   1   6
TORSDOF 2
ENDMDL
MODEL 16
REMARK VINA RESULT:    -4.507      2.192      3.027
REMARK INTER + INTRA:          -5.132
REMARK INTER:                  -5.137
REMARK INTRA:                   0.005
REMARK UNBOUND:                -0.099
REMARK  2 active torsions:
REMARK  status: ('A' for Active; 'I' for Inactive)
REMARK    1  A    between atoms: P_2  and  C_5 
REMARK    2  A    between atoms: C_5  and  P_6 
ROOT
HETATM    1  C   UNL     1      -5.629   4.337  -4.553  1.00  0.00     0.291 C 
ENDROOT
BRANCH   1   2
HETATM    2  P   UNL     1      -6.040   5.944  -3.823  1.00  0.00     0.272 P 
HETATM    3  O   UNL     1      -5.199   6.138  -2.583  1.00  0.00    -0.639 OA
HETATM    4  O   UNL     1      -7.530   5.788  -3.489  1.00  0.00    -0.639 OA
HETATM    5  O   UNL     1      -5.815   7.028  -4.850  1.00  0.00    -0.639 OA
ENDBRANCH   1   2
BRANCH   1   6
HETATM    6  P   UNL     1      -4.057   4.134  -5.449  1.00  0.00     0.272 P 
HETATM    7  O   UNL     1      -4.348   4.239  -6.909  1.00  0.00    -0.639 OA
HETATM    8  O   UNL     1      -3.232   5.293  -4.964  1.00  0.00    -0.639 OA
HETATM    9  O   UNL     1      -3.431   2.831  -5.092  1.00  0.00    -0.639 OA
ENDBRANCH   1   6
TORSDOF 2
ENDMDL
MODEL 17
REMARK VINA RESULT:    -4.491      2.159      3.003
REMARK INTER + INTRA:          -5.115
REMARK INTER:                  -5.038
REMARK INTRA:                  -0.077
REMARK UNBOUND:                -0.099
REMARK  2 active torsions:
REMARK  status: ('A' for Active; 'I' for Inactive)
REMARK    1  A    between atoms: P_2  and  C_5 
REMARK    2  A    between atoms: C_5  and  P_6 
ROOT
HETATM    1  C   UNL     1      -4.870   5.407  -4.526  1.00  0.00     0.291 C 
ENDROOT
BRANCH   1   2
HETATM    2  P   UNL     1      -6.631   5.841  -4.537  1.00  0.00     0.272 P 
HETATM    3  O   UNL     1      -7.245   5.323  -5.817  1.00  0.00    -0.639 OA
HETATM    4  O   UNL     1      -6.597   7.375  -4.495  1.00  0.00    -0.639 OA
HETATM    5  O   UNL     1      -7.291   5.268  -3.306  1.00  0.00    -0.639 OA
ENDBRANCH   1   2
BRANCH   1   6
HETATM    6  P   UNL     1      -4.334   3.813  -5.225  1.00  0.00     0.272 P 
HETATM    7  O   UNL     1      -3.057   3.430  -4.556  1.00  0.00    -0.639 OA
HETATM    8  O   UNL     1      -5.454   2.881  -4.855  1.00  0.00    -0.639 OA
HETATM    9  O   UNL     1      -4.185   3.930  -6.702  1.00  0.00    -0.639 OA
ENDBRANCH   1   6
TORSDOF 2
ENDMDL
MODEL 18
REMARK VINA RESULT:    -4.431      5.756      7.259
REMARK INTER + INTRA:          -5.048
REMARK INTER:                  -5.026
REMARK INTRA:                  -0.022
REMARK UNBOUND:                -0.099
REMARK  2 active torsions:
REMARK  status: ('A' for Active; 'I' for Inactive)
REMARK    1  A    between atoms: P_2  and  C_5 
REMARK    2  A    between atoms: C_5  and  P_6 
ROOT
HETATM    1  C   UNL     1      -8.996   0.978  -3.201  1.00  0.00     0.291 C 
ENDROOT
BRANCH   1   2
HETATM    2  P   UNL     1      -7.547   0.029  -3.736  1.00  0.00     0.272 P 
HETATM    3  O   UNL     1      -8.011  -1.329  -4.211  1.00  0.00    -0.639 OA
HETATM    4  O   UNL     1      -6.717  -0.066  -2.448  1.00  0.00    -0.639 OA
HETATM    5  O   UNL     1      -6.817   0.799  -4.808  1.00  0.00    -0.639 OA
ENDBRANCH   1   2
BRANCH   1   6
HETATM    6  P   UNL     1      -9.521   0.909  -1.459  1.00  0.00     0.272 P 
HETATM    7  O   UNL     1      -8.562   1.729  -0.661  1.00  0.00    -0.639 OA
HETATM    8  O   UNL     1     -10.890   1.531  -1.486  1.00  0.00    -0.639 OA
HETATM    9  O   UNL     1      -9.572  -0.506  -0.998  1.00  0.00    -0.639 OA
ENDBRANCH   1   6
TORSDOF 2
ENDMDL
MODEL 19
REMARK VINA RESULT:    -4.327      2.210      3.263
REMARK INTER + INTRA:          -4.932
REMARK INTER:                  -4.963
REMARK INTRA:                   0.031
REMARK UNBOUND:                -0.099
REMARK  2 active torsions:
REMARK  status: ('A' for Active; 'I' for Inactive)
REMARK    1  A    between atoms: P_2  and  C_5 
REMARK    2  A    between atoms: C_5  and  P_6 
ROOT
HETATM    1  C   UNL     1      -5.765   4.527  -4.891  1.00  0.00     0.291 C 
ENDROOT
BRANCH   1   2
HETATM    2  P   UNL     1      -4.055   4.377  -5.475  1.00  0.00     0.272 P 
HETATM    3  O   UNL     1      -3.297   5.620  -5.069  1.00  0.00    -0.639 OA
HETATM    4  O   UNL     1      -4.229   4.282  -6.997  1.00  0.00    -0.639 OA
HETATM    5  O   UNL     1      -3.446   3.117  -4.909  1.00  0.00    -0.639 OA
ENDBRANCH   1   2
BRANCH   1   6
HETATM    6  P   UNL     1      -6.233   5.939  -3.841  1.00  0.00     0.272 P 
HETATM    7  O   UNL     1      -5.308   5.961  -2.669  1.00  0.00    -0.639 OA
HETATM    8  O   UNL     1      -6.016   7.125  -4.739  1.00  0.00    -0.639 OA
HETATM    9  O   UNL     1      -7.659   5.818  -3.431  1.00  0.00    -0.639 OA
ENDBRANCH   1   6
TORSDOF 2
ENDMDL
MODEL 20
REMARK VINA RESULT:    -4.308      2.316      3.158
REMARK INTER + INTRA:          -4.911
REMARK INTER:                  -4.816
REMARK INTRA:                  -0.095
REMARK UNBOUND:                -0.099
REMARK  2 active torsions:
REMARK  status: ('A' for Active; 'I' for Inactive)
REMARK    1  A    between atoms: P_2  and  C_5 
REMARK    2  A    between atoms: C_5  and  P_6 
ROOT
HETATM    1  C   UNL     1      -5.850   3.566  -4.691  1.00  0.00     0.291 C 
ENDROOT
BRANCH   1   2
HETATM    2  P   UNL     1      -4.184   4.071  -5.198  1.00  0.00     0.272 P 
HETATM    3  O   UNL     1      -3.178   3.240  -4.436  1.00  0.00    -0.639 OA
HETATM    4  O   UNL     1      -4.142   5.548  -4.784  1.00  0.00    -0.639 OA
HETATM    5  O   UNL     1      -4.051   3.912  -6.693  1.00  0.00    -0.639 OA
ENDBRANCH   1   2
BRANCH   1   6
HETATM    6  P   UNL     1      -7.278   4.603  -5.142  1.00  0.00     0.272 P 
HETATM    7  O   UNL     1      -7.070   5.080  -6.541  1.00  0.00    -0.639 OA
HETATM    8  O   UNL     1      -8.438   3.652  -5.048  1.00  0.00    -0.639 OA
HETATM    9  O   UNL     1      -7.414   5.729  -4.177  1.00  0.00    -0.639 OA
ENDBRANCH   1   6
TORSDOF 2
ENDMDL
