REMARK  9 active torsions:
REMARK  status: ('A' for Active; 'I' for Inactive)
REMARK    1  A    between atoms: C_1  and  O_24 
REMARK    2  A    between atoms: C_2  and  O_27 
REMARK    3  A    between atoms: C_3  and  N_14 
REMARK    4  A    between atoms: C_9  and  O_29 
REMARK    5  A    between atoms: C_9  and  C_13 
REMARK    6  A    between atoms: C_10  and  O_31 
REMARK    7  A    between atoms: C_12  and  N_21 
REMARK    8  A    between atoms: O_29  and  P_33 
REMARK    9  A    between atoms: O_31  and  P_33 
ROOT
HETATM    1  C   UNL     1     -16.200  18.561 -31.403  1.00  0.00    -0.091 C 
HETATM    2  C   UNL     1     -16.274  19.464 -32.162  1.00  0.00     0.014 C 
HETATM    3  C   UNL     1     -16.056  17.440 -30.472  1.00  0.00     0.274 C 
ENDROOT
BRANCH   3   4
HETATM    4  O   UNL     1     -15.869  17.866 -29.131  1.00  0.00    -0.278 OA
BRANCH   4   5
HETATM    5  P   UNL     1     -14.717  17.341 -28.146  1.00  0.00     0.409 P 
HETATM    6  O   UNL     1     -14.745  15.861 -28.218  1.00  0.00    -0.624 OA
HETATM    7  O   UNL     1     -14.975  18.039 -26.862  1.00  0.00    -0.624 OA
BRANCH   5   8
HETATM    8  O   UNL     1     -13.333  17.824 -28.798  1.00  0.00    -0.287 OA
BRANCH   8   9
HETATM    9  C   UNL     1     -13.111  19.246 -28.896  1.00  0.00     0.216 C 
BRANCH   9  10
HETATM   10  C   UNL     1     -11.718  19.525 -29.408  1.00  0.00     0.180 C 
HETATM   11  C   UNL     1     -11.404  21.000 -29.669  1.00  0.00     0.182 C 
HETATM   12  C   UNL     1     -10.258  20.889 -30.677  1.00  0.00     0.198 C 
HETATM   13  C   UNL     1     -10.746  19.719 -31.525  1.00  0.00     0.262 C 
HETATM   14  O   UNL     1     -11.521  18.869 -30.684  1.00  0.00    -0.353 OA
BRANCH  11  15
HETATM   15  O   UNL     1     -11.016  21.707 -28.497  1.00  0.00    -0.390 OA
ATOM     16  HO  UNL     1     -11.727  21.776 -27.871  1.00  0.00     0.210 HD
ENDBRANCH  11  15
BRANCH  12  17
HETATM   17  O   UNL     1      -9.079  20.494 -30.015  1.00  0.00    -0.388 OA
ATOM     18  HO  UNL     1      -8.368  20.425 -30.641  1.00  0.00     0.210 HD
ENDBRANCH  12  17
BRANCH  13  19
HETATM   19  N   UNL     1     -11.557  20.048 -32.694  1.00  0.00    -0.297 N 
HETATM   20  C   UNL     1     -12.884  19.758 -32.891  1.00  0.00     0.188 A 
HETATM   21  N   UNL     1     -13.337  20.144 -34.060  1.00  0.00    -0.346 N 
HETATM   22  C   UNL     1     -12.232  20.729 -34.670  1.00  0.00     0.122 A 
ATOM     23  HN  UNL     1     -14.280  20.040 -34.435  1.00  0.00     0.167 HD
HETATM   24  C   UNL     1     -11.128  20.676 -33.839  1.00  0.00     0.142 A 
HETATM   25  C   UNL     1     -12.055  21.326 -35.933  1.00  0.00     0.131 A 
HETATM   26  N   UNL     1      -9.896  21.143 -34.113  1.00  0.00    -0.336 N 
HETATM   27  C   UNL     1      -9.850  21.692 -35.322  1.00  0.00     0.183 A 
ATOM     28  HN  UNL     1      -9.102  21.083 -33.476  1.00  0.00     0.168 HD
HETATM   29  N   UNL     1     -10.826  21.814 -36.230  1.00  0.00    -0.337 N 
ATOM     30  HN  UNL     1     -10.648  22.265 -37.127  1.00  0.00     0.168 HD
BRANCH  25  31
HETATM   31  N   UNL     1     -13.025  21.442 -36.838  1.00  0.00    -0.383 N 
ATOM     32  HN2 UNL     1     -13.950  21.075 -36.614  1.00  0.00     0.157 HD
ATOM     33  HN1 UNL     1     -12.897  21.874 -37.753  1.00  0.00     0.157 HD
ENDBRANCH  25  31
ENDBRANCH  13  19
ENDBRANCH   9  10
ENDBRANCH   8   9
ENDBRANCH   5   8
ENDBRANCH   4   5
ENDBRANCH   3   4
TORSDOF 9
