REMARK  10 active torsions:
REMARK  status: ('A' for Active; 'I' for Inactive)
REMARK    1  A    between atoms: C_1  and  O_22 
REMARK    2  A    between atoms: C_2  and  O_24 
REMARK    3  A    between atoms: C_3  and  N_14 
REMARK    4  A    between atoms: C_9  and  C_13 
REMARK    5  A    between atoms: C_9  and  O_25 
REMARK    6  A    between atoms: C_10  and  O_27 
REMARK    7  A    between atoms: C_12  and  N_21 
REMARK    8  A    between atoms: O_25  and  P_29 
REMARK    9  A    between atoms: O_26  and  P_29 
REMARK   10  A    between atoms: O_27  and  P_29 
ROOT
HETATM    1  C   UNL     1      -0.417  -6.619   1.549  1.00  0.00    -0.091 C 
HETATM    2  C   UNL     1       0.377  -7.505   1.739  1.00  0.00     0.014 C 
HETATM    3  C   UNL     1      -1.382  -5.543   1.319  1.00  0.00     0.273 C 
ENDROOT
BRANCH   3   4
HETATM    4  O   UNL     1      -0.682  -4.333   1.167  1.00  0.00    -0.285 OA
BRANCH   4   5
HETATM    5  P   UNL     1      -1.813  -3.095   0.850  1.00  0.00     0.393 P 
HETATM    6  O   UNL     1      -2.453  -3.328  -0.500  1.00  0.00    -0.631 OA
BRANCH   5   7
HETATM    7  O   UNL     1      -1.015  -1.589   0.819  1.00  0.00    -0.294 OA
BRANCH   7   8
HETATM    8  C   UNL     1      -0.384  -1.396   2.063  1.00  0.00     0.215 C 
BRANCH   8   9
HETATM    9  C   UNL     1       0.313  -0.030   2.087  1.00  0.00     0.180 C 
HETATM   10  C   UNL     1      -0.668   1.130   2.004  1.00  0.00     0.182 C 
HETATM   11  C   UNL     1       0.176   2.226   1.383  1.00  0.00     0.198 C 
HETATM   12  C   UNL     1       1.323   1.457   0.704  1.00  0.00     0.262 C 
HETATM   13  O   UNL     1       1.207   0.081   1.005  1.00  0.00    -0.353 OA
BRANCH  10  14
HETATM   14  O   UNL     1      -1.151   1.474   3.278  1.00  0.00    -0.390 OA
HETATM   15  H   UNL     1      -1.885   2.126   3.132  1.00  0.00     0.210 HD
ENDBRANCH  10  14
BRANCH  11  16
HETATM   16  O   UNL     1       0.666   3.137   2.341  1.00  0.00    -0.388 OA
HETATM   17  H   UNL     1       1.198   2.628   3.008  1.00  0.00     0.210 HD
ENDBRANCH  11  16
BRANCH  12  18
HETATM   18  N   UNL     1       1.289   1.650  -0.748  1.00  0.00    -0.297 N 
HETATM   19  C   UNL     1       2.078   2.472  -1.487  1.00  0.00     0.188 A 
HETATM   20  N   UNL     1       1.756   2.486  -2.810  1.00  0.00    -0.346 N 
HETATM   21  C   UNL     1       0.714   1.635  -2.870  1.00  0.00     0.122 A 
ATOM     22  HN  UNL     1       2.195   3.010  -3.567  1.00  0.00     0.167 HD
HETATM   23  C   UNL     1       0.432   1.142  -1.643  1.00  0.00     0.142 A 
HETATM   24  C   UNL     1      -0.057   1.256  -3.964  1.00  0.00     0.131 A 
HETATM   25  N   UNL     1      -0.593   0.285  -1.418  1.00  0.00    -0.336 N 
HETATM   26  C   UNL     1      -1.357  -0.097  -2.485  1.00  0.00     0.183 A 
ATOM     27  HN  UNL     1      -0.789  -0.065  -0.480  1.00  0.00     0.168 HD
HETATM   28  N   UNL     1      -1.087   0.386  -3.741  1.00  0.00    -0.337 N 
ATOM     29  HN  UNL     1      -1.668   0.089  -4.525  1.00  0.00     0.168 HD
BRANCH  24  30
HETATM   30  N   UNL     1       0.203   1.754  -5.277  1.00  0.00    -0.383 N 
HETATM   31  H   UNL     1      -0.394   1.454  -6.079  1.00  0.00     0.157 HD
HETATM   32  H   UNL     1       0.989   2.418  -5.454  1.00  0.00     0.157 HD
ENDBRANCH  24  30
ENDBRANCH  12  18
ENDBRANCH   8   9
ENDBRANCH   7   8
ENDBRANCH   5   7
BRANCH   5  33
HETATM   33  O   UNL     1      -3.018  -3.074   2.041  1.00  0.00    -0.307 OA
HETATM   34  H   UNL     1      -3.567  -2.277   1.831  1.00  0.00     0.222 HD
ENDBRANCH   5  33
ENDBRANCH   4   5
ENDBRANCH   3   4
TORSDOF 10
