REMARK  6 active torsions:
REMARK  status: ('A' for Active; 'I' for Inactive)
REMARK    1  A    between atoms: N_18  and  C_19 
REMARK    2  A    between atoms: C_19  and  C_20 
REMARK    3  A    between atoms: C_20  and  C_21 
REMARK    4  A    between atoms: C_21  and  C_22 
REMARK    5  A    between atoms: C_22  and  C_23 
REMARK    6  A    between atoms: C_23  and  C_24 
ROOT
HETATM    1  O   UNL     1     -20.058   4.269  -9.195  1.00  0.00    -0.272 OA
HETATM    2  C   UNL     1     -20.560   4.467 -10.312  1.00  0.00     0.234 A 
HETATM    3  C   UNL     1     -21.576   5.422 -10.488  1.00  0.00     0.126 A 
HETATM    4  C   UNL     1     -21.126   6.921 -10.396  1.00  0.00     0.126 C 
HETATM    5  C   UNL     1     -22.152   7.602 -11.304  1.00  0.00     0.167 C 
HETATM    6 CL   UNL     1     -23.970   7.489 -10.755  1.00  0.00    -0.097 Cl
HETATM    7 CL   UNL     1     -21.884   9.428 -11.467  1.00  0.00    -0.097 Cl
HETATM    8 CL   UNL     1     -21.068   7.573  -8.706  1.00  0.00    -0.108 Cl
HETATM    9  C   UNL     1     -19.963   7.120 -11.156  1.00  0.00     0.059 C 
HETATM   10 CL   UNL     1     -18.391   7.374 -10.416  1.00  0.00    -0.085 Cl
HETATM   11  C   UNL     1     -20.288   7.059 -12.447  1.00  0.00     0.059 C 
HETATM   12 CL   UNL     1     -19.207   7.220 -13.777  1.00  0.00    -0.085 Cl
HETATM   13  C   UNL     1     -21.691   6.782 -12.491  1.00  0.00     0.126 C 
HETATM   14 CL   UNL     1     -22.572   7.219 -13.980  1.00  0.00    -0.108 Cl
HETATM   15  C   UNL     1     -21.945   5.327 -11.934  1.00  0.00     0.126 A 
HETATM   16  C   UNL     1     -21.092   4.355 -12.427  1.00  0.00     0.234 A 
HETATM   17  O   UNL     1     -21.116   3.990 -13.599  1.00  0.00    -0.272 OA
HETATM   18  N   UNL     1     -20.297   3.819 -11.464  1.00  0.00    -0.288 N 
ENDROOT
BRANCH  18  19
HETATM   19  C   UNL     1     -19.338   2.755 -11.819  1.00  0.00     0.135 C 
BRANCH  19  20
HETATM   20  C   UNL     1     -17.896   3.119 -11.457  1.00  0.00     0.020 C 
BRANCH  20  21
HETATM   21  C   UNL     1     -17.077   3.331 -12.707  1.00  0.00     0.002 C 
BRANCH  21  22
HETATM   22  C   UNL     1     -16.070   4.443 -12.476  1.00  0.00     0.010 C 
BRANCH  22  23
HETATM   23  C   UNL     1     -15.465   4.865 -13.814  1.00  0.00     0.113 C 
BRANCH  23  24
HETATM   24  C   UNL     1     -15.542   6.377 -13.934  1.00  0.00     0.172 C 
HETATM   25  O   UNL     1     -15.393   7.018 -12.883  1.00  0.00    -0.648 OA
HETATM   26  O   UNL     1     -15.740   6.857 -15.075  1.00  0.00    -0.648 OA
ENDBRANCH  23  24
ENDBRANCH  22  23
ENDBRANCH  21  22
ENDBRANCH  20  21
ENDBRANCH  19  20
ENDBRANCH  18  19
TORSDOF 6
