REMARK  5 active torsions:
REMARK  status: ('A' for Active; 'I' for Inactive)
REMARK    1  A    between atoms: C_4  and  C_23 
REMARK    2  A    between atoms: C_10  and  C_15 
REMARK    3  A    between atoms: C_11  and  C_35 
REMARK    4  A    between atoms: C_26  and  C_29 
REMARK       I    between atoms: C_35  and  N_41 
REMARK    5  A    between atoms: C_37  and  C_39 
ROOT
HETATM    1  C   UNL     1     -34.933   9.609  21.904  1.00  0.00     0.149 A 
HETATM    2  C   UNL     1     -33.109  10.178  20.471  1.00  0.00     0.049 A 
HETATM    3  N   UNL     1     -33.983   9.251  21.006  1.00  0.00    -0.339 N 
ATOM      4  HN  UNL     1     -33.912   8.275  20.719  1.00  0.00     0.167 HD
HETATM    5  C   UNL     1     -33.254  11.499  20.809  1.00  0.00     0.106 A 
HETATM    6  C   UNL     1     -36.532   9.933  23.390  1.00  0.00     0.097 A 
HETATM    7  C   UNL     1     -35.905   8.929  22.598  1.00  0.00     0.108 A 
HETATM    8  N   UNL     1     -35.009  10.906  22.278  1.00  0.00    -0.202 N 
HETATM    9  N   UNL     1     -35.986  11.116  23.182  1.00  0.00    -0.286 N 
ATOM     10  HN  UNL     1     -36.248  12.002  23.614  1.00  0.00     0.188 HD
HETATM   11  O   UNL     1     -34.466  13.087  22.039  1.00  0.00    -0.266 OA
HETATM   12  C   UNL     1     -34.248  11.937  21.724  1.00  0.00     0.270 A 
ENDROOT
BRANCH   2  13
HETATM   13  C   UNL     1     -32.045   9.673  19.570  1.00  0.00    -0.009 A 
HETATM   14  C   UNL     1     -31.437  10.520  18.653  1.00  0.00     0.014 A 
HETATM   15  C   UNL     1     -30.376  10.092  17.892  1.00  0.00     0.008 A 
HETATM   16  C   UNL     1     -29.901   8.801  17.996  1.00  0.00    -0.054 A 
HETATM   17  C   UNL     1     -30.537   7.945  18.866  1.00  0.00     0.008 A 
HETATM   18  C   UNL     1     -31.579   8.367  19.649  1.00  0.00     0.014 A 
BRANCH  16  19
HETATM   19  C   UNL     1     -28.678   8.325  17.248  1.00  0.00     0.018 C 
HETATM   20  C   UNL     1     -28.693   8.632  15.766  1.00  0.00     0.009 C 
HETATM   21  C   UNL     1     -27.530   7.958  15.062  1.00  0.00     0.001 C 
HETATM   22  C   UNL     1     -26.204   8.355  15.667  1.00  0.00     0.000 C 
HETATM   23  C   UNL     1     -26.186   8.125  17.158  1.00  0.00     0.001 C 
HETATM   24  C   UNL     1     -27.365   8.808  17.833  1.00  0.00     0.009 C 
ENDBRANCH  16  19
ENDBRANCH   2  13
BRANCH   7  25
HETATM   25  C   UNL     1     -36.217   7.490  22.571  1.00  0.00     0.260 C 
HETATM   26  N   UNL     1     -35.217   6.610  22.496  1.00  0.00    -0.347 N 
HETATM   27  C   UNL     1     -35.248   5.143  22.490  1.00  0.00     0.134 C 
HETATM   28  C   UNL     1     -33.763   6.688  22.625  1.00  0.00     0.134 C 
HETATM   29  C   UNL     1     -33.727   5.155  22.464  1.00  0.00     0.050 C 
HETATM   30  O   UNL     1     -37.367   7.161  22.639  1.00  0.00    -0.267 OA
BRANCH  29  31
HETATM   31  C   UNL     1     -33.117   4.701  21.177  1.00  0.00     0.230 C 
HETATM   32  F   UNL     1     -31.843   4.901  21.211  1.00  0.00    -0.255 F 
ENDBRANCH  29  31
ENDBRANCH   7  25
BRANCH   6  33
HETATM   33  C   UNL     1     -37.559   9.765  24.392  1.00  0.00     0.084 A 
HETATM   34  N   UNL     1     -37.279   8.944  25.410  1.00  0.00    -0.361 N 
HETATM   35  C   UNL     1     -38.144   8.920  26.424  1.00  0.00     0.105 A 
ATOM     36  HN  UNL     1     -36.441   8.362  25.410  1.00  0.00     0.165 HD
HETATM   37  C   UNL     1     -39.284   9.666  26.418  1.00  0.00     0.105 A 
HETATM   38  N   UNL     1     -39.593  10.474  25.403  1.00  0.00    -0.366 N 
HETATM   39  C   UNL     1     -38.743  10.546  24.377  1.00  0.00     0.034 A 
ATOM     40  HN  UNL     1     -40.454  11.021  25.411  1.00  0.00     0.165 HD
HETATM   41  C   UNL     1     -39.110  11.503  23.285  1.00  0.00     0.070 C 
ENDBRANCH   6  33
TORSDOF 5
