REMARK  7 active torsions:
REMARK  status: ('A' for Active; 'I' for Inactive)
REMARK    1  A    between atoms: C_8  and  O_9 
REMARK    2  A    between atoms: O_9  and  C_10 
REMARK    3  A    between atoms: C_13  and  N_14 
REMARK    4  A    between atoms: N_14  and  S_16 
REMARK    5  A    between atoms: S_16  and  C_19 
REMARK    6  A    between atoms: C_22  and  C_23 
REMARK    7  A    between atoms: C_33  and  C_34 
ROOT
HETATM    1  C   UNL     1     -19.037  -9.262 -14.323  1.00  0.00     0.087 A 
HETATM    2  C   UNL     1     -19.923  -9.040 -15.380  1.00  0.00     0.040 A 
HETATM    3  C   UNL     1     -19.680  -8.025 -16.292  1.00  0.00     0.033 A 
HETATM    4  C   UNL     1     -18.563  -7.210 -16.144  1.00  0.00     0.043 A 
HETATM    5  C   UNL     1     -17.676  -7.458 -15.066  1.00  0.00     0.045 A 
HETATM    6  C   UNL     1     -17.901  -8.466 -14.126  1.00  0.00     0.014 A 
ENDROOT
BRANCH   6   7
HETATM    7  C   UNL     1     -17.009  -8.689 -13.040  1.00  0.00     0.028 A 
HETATM    8  C   UNL     1     -15.663  -8.864 -13.218  1.00  0.00     0.109 A 
HETATM    9  N   UNL     1     -14.793  -9.061 -12.126  1.00  0.00    -0.327 N 
HETATM   10  C   UNL     1     -13.356  -9.249 -12.479  1.00  0.00     0.159 C 
HETATM   11  C   UNL     1     -15.250  -9.039 -10.853  1.00  0.00     0.260 A 
HETATM   12  C   UNL     1     -16.608  -8.854 -10.665  1.00  0.00     0.070 A 
HETATM   13  O   UNL     1     -14.419  -9.242  -9.922  1.00  0.00    -0.267 OA
HETATM   14  C   UNL     1     -17.457  -8.799  -9.571  1.00  0.00     0.059 A 
HETATM   15  C   UNL     1     -17.427  -8.661 -11.758  1.00  0.00     0.104 A 
HETATM   16  C   UNL     1     -18.753  -8.586  -9.973  1.00  0.00     0.105 A 
HETATM   17  O   UNL     1     -18.721  -8.503 -11.301  1.00  0.00    -0.306 OA
BRANCH  16  18
HETATM   18  C   UNL     1     -19.967  -8.464  -9.302  1.00  0.00     0.083 A 
HETATM   19  C   UNL     1     -21.137  -8.093  -9.856  1.00  0.00     0.121 A 
HETATM   20  N   UNL     1     -22.094  -8.080  -8.904  1.00  0.00    -0.360 N 
HETATM   21  C   UNL     1     -21.523  -8.473  -7.773  1.00  0.00     0.180 A 
ATOM     22  HN  UNL     1     -23.072  -7.818  -9.030  1.00  0.00     0.166 HD
HETATM   23  N   UNL     1     -20.236  -8.710  -8.024  1.00  0.00    -0.349 N 
ATOM     24  HN  UNL     1     -19.556  -9.033  -7.336  1.00  0.00     0.167 HD
ENDBRANCH  16  18
ENDBRANCH   6   7
BRANCH   1  25
HETATM   25  O   UNL     1     -19.198 -10.240 -13.405  1.00  0.00    -0.307 OA
BRANCH  25  26
HETATM   26  C   UNL     1     -19.768 -11.448 -13.550  1.00  0.00     0.114 A 
HETATM   27  C   UNL     1     -19.324 -12.363 -14.481  1.00  0.00     0.043 A 
HETATM   28  C   UNL     1     -19.956 -13.594 -14.549  1.00  0.00     0.045 A 
HETATM   29  C   UNL     1     -20.998 -13.911 -13.675  1.00  0.00     0.119 A 
HETATM   30  F   UNL     1     -21.651 -15.112 -13.718  1.00  0.00    -0.206 F 
HETATM   31  C   UNL     1     -21.415 -12.995 -12.737  1.00  0.00     0.087 A 
HETATM   32  C   UNL     1     -20.778 -11.772 -12.655  1.00  0.00     0.153 A 
HETATM   33  F   UNL     1     -21.213 -10.968 -11.756  1.00  0.00    -0.203 F 
ENDBRANCH  25  26
ENDBRANCH   1  25
BRANCH   4  34
HETATM   34  N   UNL     1     -18.421  -6.265 -17.068  1.00  0.00    -0.285 N 
ATOM     35  HN  UNL     1     -19.138  -6.176 -17.788  1.00  0.00     0.178 HD
BRANCH  34  36
HETATM   36  S   UNL     1     -17.152  -5.241 -17.101  1.00  0.00     0.230 S 
HETATM   37  O   UNL     1     -17.007  -4.493 -15.802  1.00  0.00    -0.206 OA
HETATM   38  O   UNL     1     -17.352  -4.229 -18.219  1.00  0.00    -0.206 OA
BRANCH  36  39
HETATM   39  C   UNL     1     -15.585  -6.122 -17.411  1.00  0.00     0.159 C 
HETATM   40  C   UNL     1     -15.778  -6.907 -18.720  1.00  0.00     0.023 C 
ENDBRANCH  36  39
ENDBRANCH  34  36
ENDBRANCH   4  34
TORSDOF 7
