MODEL 1
REMARK VINA RESULT:    -9.262      0.000      0.000
REMARK INTER + INTRA:         -14.129
REMARK INTER:                 -13.052
REMARK INTRA:                  -1.077
REMARK UNBOUND:                -1.077
REMARK  8 active torsions:
REMARK  status: ('A' for Active; 'I' for Inactive)
REMARK    1  A    between atoms: C_1  and  N_18 
REMARK    2  A    between atoms: C_3  and  O_21 
REMARK    3  A    between atoms: C_4  and  O_25 
REMARK    4  A    between atoms: C_6  and  C_8 
REMARK    5  A    between atoms: C_8  and  O_30 
REMARK    6  A    between atoms: O_27  and  P_32 
REMARK    7  A    between atoms: O_27  and  P_31 
REMARK    8  A    between atoms: O_30  and  P_31 
ROOT
HETATM    1  C   UNL     1      38.682  36.170  21.678  1.00  0.00     0.262 C 
HETATM    2  C   UNL     1      39.997  35.603  22.076  1.00  0.00     0.198 C 
HETATM    3  C   UNL     1      40.606  35.019  20.867  1.00  0.00     0.182 C 
HETATM    4  C   UNL     1      40.188  35.962  19.771  1.00  0.00     0.180 C 
HETATM    5  O   UNL     1      38.980  36.674  20.295  1.00  0.00    -0.353 OA
ENDROOT
BRANCH   1   6
HETATM    6  N   UNL     1      37.580  35.298  21.511  1.00  0.00    -0.297 N 
HETATM    7  C   UNL     1      36.461  35.698  20.914  1.00  0.00     0.143 A 
HETATM    8  N   UNL     1      35.984  36.810  20.405  1.00  0.00    -0.316 N 
HETATM    9  C   UNL     1      35.626  34.529  20.885  1.00  0.00     0.119 A 
HETATM   10  C   UNL     1      34.810  36.853  19.869  1.00  0.00     0.181 A 
ATOM     11  HN  UNL     1      36.552  37.658  20.433  1.00  0.00     0.170 HD
HETATM   12 CL   UNL     1      34.327  38.421  19.220  1.00  0.00    -0.045 Cl
HETATM   13  N   UNL     1      33.992  35.828  19.812  1.00  0.00    -0.319 N 
HETATM   14  C   UNL     1      34.361  34.661  20.311  1.00  0.00     0.149 A 
ATOM     15  HN  UNL     1      33.073  35.933  19.383  1.00  0.00     0.169 HD
HETATM   16  N   UNL     1      33.490  33.516  20.240  1.00  0.00    -0.080 NA
HETATM   17  N   UNL     1      36.406  33.482  21.524  1.00  0.00    -0.346 N 
HETATM   18  C   UNL     1      37.592  34.026  21.855  1.00  0.00     0.188 A 
ATOM     19  HN  UNL     1      36.110  32.520  21.690  1.00  0.00     0.167 HD
ENDBRANCH   1   6
BRANCH   2  20
HETATM   20  O   UNL     1      40.862  36.682  22.506  1.00  0.00    -0.388 OA
ATOM     21  HO  UNL     1      41.655  36.313  22.875  1.00  0.00     0.210 HD
ENDBRANCH   2  20
BRANCH   4  22
HETATM   22  C   UNL     1      39.902  35.291  18.470  1.00  0.00     0.216 C 
BRANCH  22  23
HETATM   23  O   UNL     1      41.120  34.774  17.984  1.00  0.00    -0.287 OA
BRANCH  23  24
HETATM   24  P   UNL     1      41.739  35.429  16.626  1.00  0.00     0.418 P 
HETATM   25  O   UNL     1      40.685  35.866  15.701  1.00  0.00    -0.624 OA
HETATM   26  O   UNL     1      42.611  36.544  17.036  1.00  0.00    -0.624 OA
BRANCH  24  27
HETATM   27  O   UNL     1      42.545  34.253  15.856  1.00  0.00    -0.173 OA
BRANCH  27  28
HETATM   28  P   UNL     1      41.976  33.172  14.787  1.00  0.00     0.431 P 
HETATM   29  O   UNL     1      41.422  33.795  13.578  1.00  0.00    -0.616 OA
HETATM   30  O   UNL     1      40.982  32.356  15.481  1.00  0.00    -0.616 OA
HETATM   31  O   UNL     1      43.071  32.286  14.372  1.00  0.00    -0.616 OA
ENDBRANCH  27  28
ENDBRANCH  24  27
ENDBRANCH  23  24
ENDBRANCH  22  23
ENDBRANCH   4  22
BRANCH   3  32
HETATM   32  O   UNL     1      42.032  34.963  20.964  1.00  0.00    -0.390 OA
ATOM     33  HO  UNL     1      42.349  34.067  20.996  1.00  0.00     0.210 HD
ENDBRANCH   3  32
TORSDOF 8
ENDMDL
MODEL 2
REMARK VINA RESULT:    -8.914      0.725      1.232
REMARK INTER + INTRA:         -13.638
REMARK INTER:                 -12.555
REMARK INTRA:                  -1.083
REMARK UNBOUND:                -1.077
REMARK  8 active torsions:
REMARK  status: ('A' for Active; 'I' for Inactive)
REMARK    1  A    between atoms: C_1  and  N_18 
REMARK    2  A    between atoms: C_3  and  O_21 
REMARK    3  A    between atoms: C_4  and  O_25 
REMARK    4  A    between atoms: C_6  and  C_8 
REMARK    5  A    between atoms: C_8  and  O_30 
REMARK    6  A    between atoms: O_27  and  P_32 
REMARK    7  A    between atoms: O_27  and  P_31 
REMARK    8  A    between atoms: O_30  and  P_31 
ROOT
HETATM    1  C   UNL     1      38.546  36.091  21.743  1.00  0.00     0.262 C 
HETATM    2  C   UNL     1      39.859  35.504  22.116  1.00  0.00     0.198 C 
HETATM    3  C   UNL     1      40.469  34.975  20.882  1.00  0.00     0.182 C 
HETATM    4  C   UNL     1      40.054  35.969  19.831  1.00  0.00     0.180 C 
HETATM    5  O   UNL     1      38.848  36.659  20.386  1.00  0.00    -0.353 OA
ENDROOT
BRANCH   1   6
HETATM    6  N   UNL     1      37.443  35.231  21.534  1.00  0.00    -0.297 N 
HETATM    7  C   UNL     1      36.344  35.648  20.911  1.00  0.00     0.143 A 
HETATM    8  N   UNL     1      35.890  36.771  20.403  1.00  0.00    -0.316 N 
HETATM    9  C   UNL     1      35.500  34.487  20.844  1.00  0.00     0.119 A 
HETATM   10  C   UNL     1      34.732  36.829  19.835  1.00  0.00     0.181 A 
ATOM     11  HN  UNL     1      36.464  37.613  20.458  1.00  0.00     0.170 HD
HETATM   12 CL   UNL     1      34.280  38.410  19.193  1.00  0.00    -0.045 Cl
HETATM   13  N   UNL     1      33.908  35.813  19.741  1.00  0.00    -0.319 N 
HETATM   14  C   UNL     1      34.254  34.636  20.236  1.00  0.00     0.149 A 
ATOM     15  HN  UNL     1      33.002  35.930  19.288  1.00  0.00     0.169 HD
HETATM   16  N   UNL     1      33.376  33.499  20.125  1.00  0.00    -0.080 NA
HETATM   17  N   UNL     1      36.254  33.425  21.490  1.00  0.00    -0.346 N 
HETATM   18  C   UNL     1      37.434  33.954  21.862  1.00  0.00     0.188 A 
ATOM     19  HN  UNL     1      35.946  32.464  21.635  1.00  0.00     0.167 HD
ENDBRANCH   1   6
BRANCH   2  20
HETATM   20  O   UNL     1      40.726  36.559  22.597  1.00  0.00    -0.388 OA
ATOM     21  HO  UNL     1      41.564  36.495  22.155  1.00  0.00     0.210 HD
ENDBRANCH   2  20
BRANCH   4  22
HETATM   22  C   UNL     1      39.770  35.361  18.500  1.00  0.00     0.216 C 
BRANCH  22  23
HETATM   23  O   UNL     1      41.004  34.976  17.937  1.00  0.00    -0.287 OA
BRANCH  23  24
HETATM   24  P   UNL     1      41.008  34.460  16.390  1.00  0.00     0.418 P 
HETATM   25  O   UNL     1      40.545  33.070  16.277  1.00  0.00    -0.624 OA
HETATM   26  O   UNL     1      40.166  35.388  15.617  1.00  0.00    -0.624 OA
BRANCH  24  27
HETATM   27  O   UNL     1      42.551  34.454  15.898  1.00  0.00    -0.173 OA
BRANCH  27  28
HETATM   28  P   UNL     1      43.134  34.193  14.405  1.00  0.00     0.431 P 
HETATM   29  O   UNL     1      42.089  34.177  13.373  1.00  0.00    -0.616 OA
HETATM   30  O   UNL     1      43.878  32.936  14.443  1.00  0.00    -0.616 OA
HETATM   31  O   UNL     1      44.080  35.263  14.066  1.00  0.00    -0.616 OA
ENDBRANCH  27  28
ENDBRANCH  24  27
ENDBRANCH  23  24
ENDBRANCH  22  23
ENDBRANCH   4  22
BRANCH   3  32
HETATM   32  O   UNL     1      41.894  34.911  20.978  1.00  0.00    -0.390 OA
ATOM     33  HO  UNL     1      42.316  35.526  20.389  1.00  0.00     0.210 HD
ENDBRANCH   3  32
TORSDOF 8
ENDMDL
MODEL 3
REMARK VINA RESULT:    -8.684      5.504      7.307
REMARK INTER + INTRA:         -13.315
REMARK INTER:                 -11.686
REMARK INTRA:                  -1.630
REMARK UNBOUND:                -1.077
REMARK  8 active torsions:
REMARK  status: ('A' for Active; 'I' for Inactive)
REMARK    1  A    between atoms: C_1  and  N_18 
REMARK    2  A    between atoms: C_3  and  O_21 
REMARK    3  A    between atoms: C_4  and  O_25 
REMARK    4  A    between atoms: C_6  and  C_8 
REMARK    5  A    between atoms: C_8  and  O_30 
REMARK    6  A    between atoms: O_27  and  P_32 
REMARK    7  A    between atoms: O_27  and  P_31 
REMARK    8  A    between atoms: O_30  and  P_31 
ROOT
HETATM    1  C   UNL     1      42.568  36.236  21.906  1.00  0.00     0.262 C 
HETATM    2  C   UNL     1      41.887  35.322  22.859  1.00  0.00     0.198 C 
HETATM    3  C   UNL     1      40.452  35.323  22.518  1.00  0.00     0.182 C 
HETATM    4  C   UNL     1      40.448  35.423  21.016  1.00  0.00     0.180 C 
HETATM    5  O   UNL     1      41.780  35.998  20.649  1.00  0.00    -0.353 OA
ENDROOT
BRANCH   1   6
HETATM    6  N   UNL     1      42.491  37.632  22.117  1.00  0.00    -0.297 N 
HETATM    7  C   UNL     1      42.895  38.499  21.193  1.00  0.00     0.143 A 
HETATM    8  N   UNL     1      43.457  38.453  20.008  1.00  0.00    -0.316 N 
HETATM    9  C   UNL     1      42.600  39.790  21.751  1.00  0.00     0.119 A 
HETATM   10  C   UNL     1      43.717  39.532  19.346  1.00  0.00     0.181 A 
ATOM     11  HN  UNL     1      43.694  37.548  19.600  1.00  0.00     0.170 HD
HETATM   12 CL   UNL     1      44.461  39.293  17.764  1.00  0.00    -0.045 Cl
HETATM   13  N   UNL     1      43.480  40.742  19.795  1.00  0.00    -0.319 N 
HETATM   14  C   UNL     1      42.932  40.908  20.986  1.00  0.00     0.149 A 
ATOM     15  HN  UNL     1      43.719  41.553  19.224  1.00  0.00     0.169 HD
HETATM   16  N   UNL     1      42.642  42.226  21.490  1.00  0.00    -0.080 NA
HETATM   17  N   UNL     1      42.010  39.522  23.052  1.00  0.00    -0.346 N 
HETATM   18  C   UNL     1      41.958  38.184  23.189  1.00  0.00     0.188 A 
ATOM     19  HN  UNL     1      41.696  40.215  23.731  1.00  0.00     0.167 HD
ENDBRANCH   1   6
BRANCH   2  20
HETATM   20  O   UNL     1      42.371  33.974  22.645  1.00  0.00    -0.388 OA
ATOM     21  HO  UNL     1      41.834  33.371  23.145  1.00  0.00     0.210 HD
ENDBRANCH   2  20
BRANCH   4  22
HETATM   22  C   UNL     1      39.331  36.244  20.466  1.00  0.00     0.216 C 
BRANCH  22  23
HETATM   23  O   UNL     1      38.415  36.470  21.514  1.00  0.00    -0.287 OA
BRANCH  23  24
HETATM   24  P   UNL     1      36.840  36.640  21.127  1.00  0.00     0.418 P 
HETATM   25  O   UNL     1      35.994  36.752  22.322  1.00  0.00    -0.624 OA
HETATM   26  O   UNL     1      36.730  37.824  20.258  1.00  0.00    -0.624 OA
BRANCH  24  27
HETATM   27  O   UNL     1      36.385  35.273  20.387  1.00  0.00    -0.173 OA
BRANCH  27  28
HETATM   28  P   UNL     1      36.621  33.739  20.865  1.00  0.00     0.431 P 
HETATM   29  O   UNL     1      36.999  33.628  22.279  1.00  0.00    -0.616 OA
HETATM   30  O   UNL     1      37.634  33.161  19.984  1.00  0.00    -0.616 OA
HETATM   31  O   UNL     1      35.378  32.981  20.674  1.00  0.00    -0.616 OA
ENDBRANCH  27  28
ENDBRANCH  24  27
ENDBRANCH  23  24
ENDBRANCH  22  23
ENDBRANCH   4  22
BRANCH   3  32
HETATM   32  O   UNL     1      39.804  34.122  22.943  1.00  0.00    -0.390 OA
ATOM     33  HO  UNL     1      39.178  33.811  22.299  1.00  0.00     0.210 HD
ENDBRANCH   3  32
TORSDOF 8
ENDMDL
MODEL 4
REMARK VINA RESULT:    -8.626      4.644      7.573
REMARK INTER + INTRA:         -13.233
REMARK INTER:                 -12.053
REMARK INTRA:                  -1.180
REMARK UNBOUND:                -1.077
REMARK  8 active torsions:
REMARK  status: ('A' for Active; 'I' for Inactive)
REMARK    1  A    between atoms: C_1  and  N_18 
REMARK    2  A    between atoms: C_3  and  O_21 
REMARK    3  A    between atoms: C_4  and  O_25 
REMARK    4  A    between atoms: C_6  and  C_8 
REMARK    5  A    between atoms: C_8  and  O_30 
REMARK    6  A    between atoms: O_27  and  P_32 
REMARK    7  A    between atoms: O_27  and  P_31 
REMARK    8  A    between atoms: O_30  and  P_31 
ROOT
HETATM    1  C   UNL     1      40.932  35.574  16.067  1.00  0.00     0.262 C 
HETATM    2  C   UNL     1      40.468  34.348  15.366  1.00  0.00     0.198 C 
HETATM    3  C   UNL     1      39.993  33.407  16.396  1.00  0.00     0.182 C 
HETATM    4  C   UNL     1      39.354  34.302  17.423  1.00  0.00     0.180 C 
HETATM    5  O   UNL     1      39.954  35.655  17.204  1.00  0.00    -0.353 OA
ENDROOT
BRANCH   1   6
HETATM    6  N   UNL     1      42.203  35.571  16.688  1.00  0.00    -0.297 N 
HETATM    7  C   UNL     1      42.372  36.020  17.928  1.00  0.00     0.143 A 
HETATM    8  N   UNL     1      41.636  36.579  18.860  1.00  0.00    -0.316 N 
HETATM    9  C   UNL     1      43.763  35.794  18.211  1.00  0.00     0.119 A 
HETATM   10  C   UNL     1      42.135  36.896  20.009  1.00  0.00     0.181 A 
ATOM     11  HN  UNL     1      40.650  36.768  18.674  1.00  0.00     0.170 HD
HETATM   12 CL   UNL     1      41.006  37.627  21.152  1.00  0.00    -0.045 Cl
HETATM   13  N   UNL     1      43.394  36.724  20.334  1.00  0.00    -0.319 N 
HETATM   14  C   UNL     1      44.232  36.185  19.465  1.00  0.00     0.149 A 
ATOM     15  HN  UNL     1      43.726  37.006  21.257  1.00  0.00     0.169 HD
HETATM   16  N   UNL     1      45.614  35.965  19.807  1.00  0.00    -0.080 NA
HETATM   17  N   UNL     1      44.308  35.190  17.007  1.00  0.00    -0.346 N 
HETATM   18  C   UNL     1      43.289  35.067  16.136  1.00  0.00     0.188 A 
ATOM     19  HN  UNL     1      45.277  34.913  16.851  1.00  0.00     0.167 HD
ENDBRANCH   1   6
BRANCH   2  20
HETATM   20  O   UNL     1      39.325  34.684  14.542  1.00  0.00    -0.388 OA
ATOM     21  HO  UNL     1      39.497  34.408  13.649  1.00  0.00     0.210 HD
ENDBRANCH   2  20
BRANCH   4  22
HETATM   22  C   UNL     1      39.543  33.844  18.830  1.00  0.00     0.216 C 
BRANCH  22  23
HETATM   23  O   UNL     1      39.047  34.856  19.676  1.00  0.00    -0.287 OA
BRANCH  23  24
HETATM   24  P   UNL     1      37.953  34.434  20.809  1.00  0.00     0.418 P 
HETATM   25  O   UNL     1      37.526  33.037  20.661  1.00  0.00    -0.624 OA
HETATM   26  O   UNL     1      38.565  34.690  22.124  1.00  0.00    -0.624 OA
BRANCH  24  27
HETATM   27  O   UNL     1      36.630  35.332  20.546  1.00  0.00    -0.173 OA
BRANCH  27  28
HETATM   28  P   UNL     1      36.333  36.855  21.023  1.00  0.00     0.431 P 
HETATM   29  O   UNL     1      36.154  36.980  22.476  1.00  0.00    -0.616 OA
HETATM   30  O   UNL     1      35.157  37.319  20.290  1.00  0.00    -0.616 OA
HETATM   31  O   UNL     1      37.465  37.708  20.638  1.00  0.00    -0.616 OA
ENDBRANCH  27  28
ENDBRANCH  24  27
ENDBRANCH  23  24
ENDBRANCH  22  23
ENDBRANCH   4  22
BRANCH   3  32
HETATM   32  O   UNL     1      39.037  32.481  15.872  1.00  0.00    -0.390 OA
ATOM     33  HO  UNL     1      39.399  31.965  15.160  1.00  0.00     0.210 HD
ENDBRANCH   3  32
TORSDOF 8
ENDMDL
MODEL 5
REMARK VINA RESULT:    -8.405      4.743      7.481
REMARK INTER + INTRA:         -12.922
REMARK INTER:                 -11.283
REMARK INTRA:                  -1.639
REMARK UNBOUND:                -1.077
REMARK  8 active torsions:
REMARK  status: ('A' for Active; 'I' for Inactive)
REMARK    1  A    between atoms: C_1  and  N_18 
REMARK    2  A    between atoms: C_3  and  O_21 
REMARK    3  A    between atoms: C_4  and  O_25 
REMARK    4  A    between atoms: C_6  and  C_8 
REMARK    5  A    between atoms: C_8  and  O_30 
REMARK    6  A    between atoms: O_27  and  P_32 
REMARK    7  A    between atoms: O_27  and  P_31 
REMARK    8  A    between atoms: O_30  and  P_31 
ROOT
HETATM    1  C   UNL     1      41.129  35.639  16.183  1.00  0.00     0.262 C 
HETATM    2  C   UNL     1      40.602  34.464  15.442  1.00  0.00     0.198 C 
HETATM    3  C   UNL     1      40.158  33.477  16.444  1.00  0.00     0.182 C 
HETATM    4  C   UNL     1      39.593  34.327  17.549  1.00  0.00     0.180 C 
HETATM    5  O   UNL     1      40.212  35.678  17.372  1.00  0.00    -0.353 OA
ENDROOT
BRANCH   1   6
HETATM    6  N   UNL     1      42.429  35.576  16.736  1.00  0.00    -0.297 N 
HETATM    7  C   UNL     1      42.719  36.152  17.899  1.00  0.00     0.143 A 
HETATM    8  N   UNL     1      42.101  36.896  18.788  1.00  0.00    -0.316 N 
HETATM    9  C   UNL     1      44.095  35.816  18.140  1.00  0.00     0.119 A 
HETATM   10  C   UNL     1      42.699  37.295  19.861  1.00  0.00     0.181 A 
ATOM     11  HN  UNL     1      41.129  37.164  18.628  1.00  0.00     0.170 HD
HETATM   12 CL   UNL     1      41.721  38.275  20.956  1.00  0.00    -0.045 Cl
HETATM   13  N   UNL     1      43.953  37.031  20.143  1.00  0.00    -0.319 N 
HETATM   14  C   UNL     1      44.677  36.304  19.309  1.00  0.00     0.149 A 
ATOM     15  HN  UNL     1      44.367  37.385  21.005  1.00  0.00     0.169 HD
HETATM   16  N   UNL     1      46.049  35.982  19.608  1.00  0.00    -0.080 NA
HETATM   17  N   UNL     1      44.501  35.016  16.997  1.00  0.00    -0.346 N 
HETATM   18  C   UNL     1      43.423  34.897  16.199  1.00  0.00     0.188 A 
ATOM     19  HN  UNL     1      45.427  34.621  16.830  1.00  0.00     0.167 HD
ENDBRANCH   1   6
BRANCH   2  20
HETATM   20  O   UNL     1      39.426  34.866  14.697  1.00  0.00    -0.388 OA
ATOM     21  HO  UNL     1      39.691  35.445  13.992  1.00  0.00     0.210 HD
ENDBRANCH   2  20
BRANCH   4  22
HETATM   22  C   UNL     1      39.843  33.789  18.917  1.00  0.00     0.216 C 
BRANCH  22  23
HETATM   23  O   UNL     1      40.211  34.874  19.739  1.00  0.00    -0.287 OA
BRANCH  23  24
HETATM   24  P   UNL     1      39.124  35.407  20.830  1.00  0.00     0.418 P 
HETATM   25  O   UNL     1      39.755  35.728  22.117  1.00  0.00    -0.624 OA
HETATM   26  O   UNL     1      38.449  36.575  20.240  1.00  0.00    -0.624 OA
BRANCH  24  27
HETATM   27  O   UNL     1      38.110  34.179  21.127  1.00  0.00    -0.173 OA
BRANCH  27  28
HETATM   28  P   UNL     1      36.488  34.204  21.198  1.00  0.00     0.431 P 
HETATM   29  O   UNL     1      35.858  34.457  19.896  1.00  0.00    -0.616 OA
HETATM   30  O   UNL     1      36.112  35.212  22.187  1.00  0.00    -0.616 OA
HETATM   31  O   UNL     1      36.010  32.903  21.681  1.00  0.00    -0.616 OA
ENDBRANCH  27  28
ENDBRANCH  24  27
ENDBRANCH  23  24
ENDBRANCH  22  23
ENDBRANCH   4  22
BRANCH   3  32
HETATM   32  O   UNL     1      39.156  32.601  15.921  1.00  0.00    -0.390 OA
ATOM     33  HO  UNL     1      38.387  33.078  15.631  1.00  0.00     0.210 HD
ENDBRANCH   3  32
TORSDOF 8
ENDMDL
MODEL 6
REMARK VINA RESULT:    -8.373      3.311      5.305
REMARK INTER + INTRA:         -12.876
REMARK INTER:                 -11.213
REMARK INTRA:                  -1.663
REMARK UNBOUND:                -1.077
REMARK  8 active torsions:
REMARK  status: ('A' for Active; 'I' for Inactive)
REMARK    1  A    between atoms: C_1  and  N_18 
REMARK    2  A    between atoms: C_3  and  O_21 
REMARK    3  A    between atoms: C_4  and  O_25 
REMARK    4  A    between atoms: C_6  and  C_8 
REMARK    5  A    between atoms: C_8  and  O_30 
REMARK    6  A    between atoms: O_27  and  P_32 
REMARK    7  A    between atoms: O_27  and  P_31 
REMARK    8  A    between atoms: O_30  and  P_31 
ROOT
HETATM    1  C   UNL     1      37.393  35.711  22.118  1.00  0.00     0.262 C 
HETATM    2  C   UNL     1      36.249  36.102  21.253  1.00  0.00     0.198 C 
HETATM    3  C   UNL     1      36.193  35.138  20.138  1.00  0.00     0.182 C 
HETATM    4  C   UNL     1      36.593  33.836  20.778  1.00  0.00     0.180 C 
HETATM    5  O   UNL     1      37.345  34.213  22.016  1.00  0.00    -0.353 OA
ENDROOT
BRANCH   1   6
HETATM    6  N   UNL     1      38.705  36.054  21.720  1.00  0.00    -0.297 N 
HETATM    7  C   UNL     1      39.770  35.444  22.232  1.00  0.00     0.143 A 
HETATM    8  N   UNL     1      40.013  34.533  23.145  1.00  0.00    -0.316 N 
HETATM    9  C   UNL     1      40.889  36.021  21.539  1.00  0.00     0.119 A 
HETATM   10  C   UNL     1      41.218  34.143  23.399  1.00  0.00     0.181 A 
ATOM     11  HN  UNL     1      39.235  34.124  23.664  1.00  0.00     0.170 HD
HETATM   12 CL   UNL     1      41.368  32.902  24.645  1.00  0.00    -0.045 Cl
HETATM   13  N   UNL     1      42.286  34.628  22.811  1.00  0.00    -0.319 N 
HETATM   14  C   UNL     1      42.161  35.565  21.887  1.00  0.00     0.149 A 
ATOM     15  HN  UNL     1      43.210  34.282  23.067  1.00  0.00     0.169 HD
HETATM   16  N   UNL     1      43.316  36.097  21.211  1.00  0.00    -0.080 NA
HETATM   17  N   UNL     1      40.316  36.991  20.621  1.00  0.00    -0.346 N 
HETATM   18  C   UNL     1      38.980  36.934  20.776  1.00  0.00     0.188 A 
ATOM     19  HN  UNL     1      40.828  37.599  19.982  1.00  0.00     0.167 HD
ENDBRANCH   1   6
BRANCH   2  20
HETATM   20  O   UNL     1      35.020  35.951  22.003  1.00  0.00    -0.388 OA
ATOM     21  HO  UNL     1      34.781  36.792  22.376  1.00  0.00     0.210 HD
ENDBRANCH   2  20
BRANCH   4  22
HETATM   22  C   UNL     1      37.407  32.951  19.896  1.00  0.00     0.216 C 
BRANCH  22  23
HETATM   23  O   UNL     1      37.704  33.677  18.724  1.00  0.00    -0.287 OA
BRANCH  23  24
HETATM   24  P   UNL     1      39.273  33.922  18.356  1.00  0.00     0.418 P 
HETATM   25  O   UNL     1      39.584  35.351  18.216  1.00  0.00    -0.624 OA
HETATM   26  O   UNL     1      40.075  33.283  19.412  1.00  0.00    -0.624 OA
BRANCH  24  27
HETATM   27  O   UNL     1      39.524  33.269  16.895  1.00  0.00    -0.173 OA
BRANCH  27  28
HETATM   28  P   UNL     1      40.693  33.613  15.822  1.00  0.00     0.431 P 
HETATM   29  O   UNL     1      41.802  34.380  16.405  1.00  0.00    -0.616 OA
HETATM   30  O   UNL     1      40.067  34.323  14.709  1.00  0.00    -0.616 OA
HETATM   31  O   UNL     1      41.245  32.358  15.297  1.00  0.00    -0.616 OA
ENDBRANCH  27  28
ENDBRANCH  24  27
ENDBRANCH  23  24
ENDBRANCH  22  23
ENDBRANCH   4  22
BRANCH   3  32
HETATM   32  O   UNL     1      34.879  35.042  19.583  1.00  0.00    -0.390 OA
ATOM     33  HO  UNL     1      34.587  34.140  19.520  1.00  0.00     0.210 HD
ENDBRANCH   3  32
TORSDOF 8
ENDMDL
MODEL 7
REMARK VINA RESULT:    -8.296      5.713      8.575
REMARK INTER + INTRA:         -12.768
REMARK INTER:                 -12.090
REMARK INTRA:                  -0.678
REMARK UNBOUND:                -1.077
REMARK  8 active torsions:
REMARK  status: ('A' for Active; 'I' for Inactive)
REMARK    1  A    between atoms: C_1  and  N_18 
REMARK    2  A    between atoms: C_3  and  O_21 
REMARK    3  A    between atoms: C_4  and  O_25 
REMARK    4  A    between atoms: C_6  and  C_8 
REMARK    5  A    between atoms: C_8  and  O_30 
REMARK    6  A    between atoms: O_27  and  P_32 
REMARK    7  A    between atoms: O_27  and  P_31 
REMARK    8  A    between atoms: O_30  and  P_31 
ROOT
HETATM    1  C   UNL     1      41.129  35.479  16.000  1.00  0.00     0.262 C 
HETATM    2  C   UNL     1      40.524  34.289  15.346  1.00  0.00     0.198 C 
HETATM    3  C   UNL     1      39.987  33.427  16.415  1.00  0.00     0.182 C 
HETATM    4  C   UNL     1      39.471  34.409  17.432  1.00  0.00     0.180 C 
HETATM    5  O   UNL     1      40.197  35.688  17.159  1.00  0.00    -0.353 OA
ENDROOT
BRANCH   1   6
HETATM    6  N   UNL     1      42.410  35.363  16.587  1.00  0.00    -0.297 N 
HETATM    7  C   UNL     1      43.454  34.911  15.897  1.00  0.00     0.143 A 
HETATM    8  N   UNL     1      43.682  34.435  14.695  1.00  0.00    -0.316 N 
HETATM    9  C   UNL     1      44.561  35.002  16.809  1.00  0.00     0.119 A 
HETATM   10  C   UNL     1      44.869  34.082  14.328  1.00  0.00     0.181 A 
ATOM     11  HN  UNL     1      42.907  34.342  14.038  1.00  0.00     0.170 HD
HETATM   12 CL   UNL     1      45.005  33.475  12.676  1.00  0.00    -0.045 Cl
HETATM   13  N   UNL     1      45.924  34.133  15.107  1.00  0.00    -0.319 N 
HETATM   14  C   UNL     1      45.807  34.579  16.347  1.00  0.00     0.149 A 
ATOM     15  HN  UNL     1      46.832  33.828  14.757  1.00  0.00     0.169 HD
HETATM   16  N   UNL     1      46.954  34.666  17.214  1.00  0.00    -0.080 NA
HETATM   17  N   UNL     1      44.004  35.539  18.039  1.00  0.00    -0.346 N 
HETATM   18  C   UNL     1      42.694  35.753  17.814  1.00  0.00     0.188 A 
ATOM     19  HN  UNL     1      44.508  35.718  18.907  1.00  0.00     0.167 HD
ENDBRANCH   1   6
BRANCH   2  20
HETATM   20  O   UNL     1      39.398  34.717  14.543  1.00  0.00    -0.388 OA
ATOM     21  HO  UNL     1      39.010  35.487  14.941  1.00  0.00     0.210 HD
ENDBRANCH   2  20
BRANCH   4  22
HETATM   22  C   UNL     1      39.654  33.970  18.846  1.00  0.00     0.216 C 
BRANCH  22  23
HETATM   23  O   UNL     1      38.414  33.479  19.302  1.00  0.00    -0.287 OA
BRANCH  23  24
HETATM   24  P   UNL     1      37.849  34.040  20.725  1.00  0.00     0.418 P 
HETATM   25  O   UNL     1      37.213  32.978  21.516  1.00  0.00    -0.624 OA
HETATM   26  O   UNL     1      38.983  34.653  21.435  1.00  0.00    -0.624 OA
BRANCH  24  27
HETATM   27  O   UNL     1      36.674  35.101  20.382  1.00  0.00    -0.173 OA
BRANCH  27  28
HETATM   28  P   UNL     1      36.483  36.612  20.946  1.00  0.00     0.431 P 
HETATM   29  O   UNL     1      36.465  36.681  22.413  1.00  0.00    -0.616 OA
HETATM   30  O   UNL     1      35.252  37.141  20.362  1.00  0.00    -0.616 OA
HETATM   31  O   UNL     1      37.596  37.444  20.473  1.00  0.00    -0.616 OA
ENDBRANCH  27  28
ENDBRANCH  24  27
ENDBRANCH  23  24
ENDBRANCH  22  23
ENDBRANCH   4  22
BRANCH   3  32
HETATM   32  O   UNL     1      38.929  32.590  15.943  1.00  0.00    -0.390 OA
ATOM     33  HO  UNL     1      39.255  31.880  15.401  1.00  0.00     0.210 HD
ENDBRANCH   3  32
TORSDOF 8
ENDMDL
MODEL 8
REMARK VINA RESULT:    -8.190      6.071      8.702
REMARK INTER + INTRA:         -12.619
REMARK INTER:                 -12.027
REMARK INTRA:                  -0.592
REMARK UNBOUND:                -1.077
REMARK  8 active torsions:
REMARK  status: ('A' for Active; 'I' for Inactive)
REMARK    1  A    between atoms: C_1  and  N_18 
REMARK    2  A    between atoms: C_3  and  O_21 
REMARK    3  A    between atoms: C_4  and  O_25 
REMARK    4  A    between atoms: C_6  and  C_8 
REMARK    5  A    between atoms: C_8  and  O_30 
REMARK    6  A    between atoms: O_27  and  P_32 
REMARK    7  A    between atoms: O_27  and  P_31 
REMARK    8  A    between atoms: O_30  and  P_31 
ROOT
HETATM    1  C   UNL     1      41.481  35.329  15.553  1.00  0.00     0.262 C 
HETATM    2  C   UNL     1      40.671  34.158  15.130  1.00  0.00     0.198 C 
HETATM    3  C   UNL     1      40.157  33.515  16.354  1.00  0.00     0.182 C 
HETATM    4  C   UNL     1      39.877  34.676  17.270  1.00  0.00     0.180 C 
HETATM    5  O   UNL     1      40.715  35.804  16.756  1.00  0.00    -0.353 OA
ENDROOT
BRANCH   1   6
HETATM    6  N   UNL     1      42.797  35.119  16.028  1.00  0.00    -0.297 N 
HETATM    7  C   UNL     1      43.748  34.619  15.244  1.00  0.00     0.143 A 
HETATM    8  N   UNL     1      43.843  34.158  14.018  1.00  0.00    -0.316 N 
HETATM    9  C   UNL     1      44.930  34.618  16.060  1.00  0.00     0.119 A 
HETATM   10  C   UNL     1      44.970  33.739  13.546  1.00  0.00     0.181 A 
ATOM     11  HN  UNL     1      43.012  34.130  13.427  1.00  0.00     0.170 HD
HETATM   12 CL   UNL     1      44.928  33.165  11.877  1.00  0.00    -0.045 Cl
HETATM   13  N   UNL     1      46.087  33.705  14.233  1.00  0.00    -0.319 N 
HETATM   14  C   UNL     1      46.103  34.128  15.486  1.00  0.00     0.149 A 
ATOM     15  HN  UNL     1      46.941  33.352  13.802  1.00  0.00     0.169 HD
HETATM   16  N   UNL     1      47.322  34.121  16.254  1.00  0.00    -0.080 NA
HETATM   17  N   UNL     1      44.514  35.159  17.343  1.00  0.00    -0.346 N 
HETATM   18  C   UNL     1      43.206  35.461  17.234  1.00  0.00     0.188 A 
ATOM     19  HN  UNL     1      45.099  35.285  18.168  1.00  0.00     0.167 HD
ENDBRANCH   1   6
BRANCH   2  20
HETATM   20  O   UNL     1      39.521  34.628  14.385  1.00  0.00    -0.388 OA
ATOM     21  HO  UNL     1      38.738  34.482  14.902  1.00  0.00     0.210 HD
ENDBRANCH   2  20
BRANCH   4  22
HETATM   22  C   UNL     1      40.162  34.397  18.707  1.00  0.00     0.216 C 
BRANCH  22  23
HETATM   23  O   UNL     1      39.935  35.590  19.423  1.00  0.00    -0.287 OA
BRANCH  23  24
HETATM   24  P   UNL     1      38.726  35.604  20.516  1.00  0.00     0.418 P 
HETATM   25  O   UNL     1      39.234  35.552  21.893  1.00  0.00    -0.624 OA
HETATM   26  O   UNL     1      37.926  36.815  20.267  1.00  0.00    -0.624 OA
BRANCH  24  27
HETATM   27  O   UNL     1      37.880  34.239  20.304  1.00  0.00    -0.173 OA
BRANCH  27  28
HETATM   28  P   UNL     1      36.678  33.643  21.219  1.00  0.00     0.431 P 
HETATM   29  O   UNL     1      36.038  32.460  20.630  1.00  0.00    -0.616 OA
HETATM   30  O   UNL     1      35.722  34.725  21.439  1.00  0.00    -0.616 OA
HETATM   31  O   UNL     1      37.220  33.253  22.526  1.00  0.00    -0.616 OA
ENDBRANCH  27  28
ENDBRANCH  24  27
ENDBRANCH  23  24
ENDBRANCH  22  23
ENDBRANCH   4  22
BRANCH   3  32
HETATM   32  O   UNL     1      38.960  32.773  16.103  1.00  0.00    -0.390 OA
ATOM     33  HO  UNL     1      39.116  32.038  15.521  1.00  0.00     0.210 HD
ENDBRANCH   3  32
TORSDOF 8
ENDMDL
MODEL 9
REMARK VINA RESULT:    -8.178      2.190      3.600
REMARK INTER + INTRA:         -12.602
REMARK INTER:                 -11.766
REMARK INTRA:                  -0.836
REMARK UNBOUND:                -1.077
REMARK  8 active torsions:
REMARK  status: ('A' for Active; 'I' for Inactive)
REMARK    1  A    between atoms: C_1  and  N_18 
REMARK    2  A    between atoms: C_3  and  O_21 
REMARK    3  A    between atoms: C_4  and  O_25 
REMARK    4  A    between atoms: C_6  and  C_8 
REMARK    5  A    between atoms: C_8  and  O_30 
REMARK    6  A    between atoms: O_27  and  P_32 
REMARK    7  A    between atoms: O_27  and  P_31 
REMARK    8  A    between atoms: O_30  and  P_31 
ROOT
HETATM    1  C   UNL     1      39.090  33.875  18.541  1.00  0.00     0.262 C 
HETATM    2  C   UNL     1      38.718  34.025  17.110  1.00  0.00     0.198 C 
HETATM    3  C   UNL     1      39.628  35.028  16.524  1.00  0.00     0.182 C 
HETATM    4  C   UNL     1      40.936  34.765  17.220  1.00  0.00     0.180 C 
HETATM    5  O   UNL     1      40.582  34.043  18.482  1.00  0.00    -0.353 OA
ENDROOT
BRANCH   1   6
HETATM    6  N   UNL     1      38.657  34.850  19.470  1.00  0.00    -0.297 N 
HETATM    7  C   UNL     1      37.412  34.860  19.939  1.00  0.00     0.143 A 
HETATM    8  N   UNL     1      36.304  34.182  19.747  1.00  0.00    -0.316 N 
HETATM    9  C   UNL     1      37.387  35.942  20.883  1.00  0.00     0.119 A 
HETATM   10  C   UNL     1      35.227  34.458  20.405  1.00  0.00     0.181 A 
ATOM     11  HN  UNL     1      36.293  33.422  19.066  1.00  0.00     0.170 HD
HETATM   12 CL   UNL     1      33.831  33.443  20.037  1.00  0.00    -0.045 Cl
HETATM   13  N   UNL     1      35.130  35.433  21.277  1.00  0.00    -0.319 N 
HETATM   14  C   UNL     1      36.180  36.194  21.536  1.00  0.00     0.149 A 
ATOM     15  HN  UNL     1      34.245  35.604  21.755  1.00  0.00     0.169 HD
HETATM   16  N   UNL     1      36.105  37.256  22.507  1.00  0.00    -0.080 NA
HETATM   17  N   UNL     1      38.729  36.501  20.865  1.00  0.00    -0.346 N 
HETATM   18  C   UNL     1      39.447  35.765  19.996  1.00  0.00     0.188 A 
ATOM     19  HN  UNL     1      39.062  37.299  21.406  1.00  0.00     0.167 HD
ENDBRANCH   1   6
BRANCH   2  20
HETATM   20  O   UNL     1      38.972  32.774  16.425  1.00  0.00    -0.388 OA
ATOM     21  HO  UNL     1      39.409  32.956  15.602  1.00  0.00     0.210 HD
ENDBRANCH   2  20
BRANCH   4  22
HETATM   22  C   UNL     1      41.732  35.994  17.501  1.00  0.00     0.216 C 
BRANCH  22  23
HETATM   23  O   UNL     1      42.656  36.152  16.448  1.00  0.00    -0.287 OA
BRANCH  23  24
HETATM   24  P   UNL     1      44.013  35.250  16.483  1.00  0.00     0.418 P 
HETATM   25  O   UNL     1      45.098  35.865  15.707  1.00  0.00    -0.624 OA
HETATM   26  O   UNL     1      44.380  35.068  17.898  1.00  0.00    -0.624 OA
BRANCH  24  27
HETATM   27  O   UNL     1      43.672  33.852  15.738  1.00  0.00    -0.173 OA
BRANCH  27  28
HETATM   28  P   UNL     1      43.020  33.624  14.269  1.00  0.00     0.431 P 
HETATM   29  O   UNL     1      41.800  32.808  14.300  1.00  0.00    -0.616 OA
HETATM   30  O   UNL     1      44.052  33.027  13.424  1.00  0.00    -0.616 OA
HETATM   31  O   UNL     1      42.670  34.928  13.692  1.00  0.00    -0.616 OA
ENDBRANCH  27  28
ENDBRANCH  24  27
ENDBRANCH  23  24
ENDBRANCH  22  23
ENDBRANCH   4  22
BRANCH   3  32
HETATM   32  O   UNL     1      39.767  34.858  15.111  1.00  0.00    -0.390 OA
ATOM     33  HO  UNL     1      40.110  34.000  14.890  1.00  0.00     0.210 HD
ENDBRANCH   3  32
TORSDOF 8
ENDMDL
MODEL 10
REMARK VINA RESULT:    -8.115      4.921      7.646
REMARK INTER + INTRA:         -12.513
REMARK INTER:                 -10.626
REMARK INTRA:                  -1.887
REMARK UNBOUND:                -1.077
REMARK  8 active torsions:
REMARK  status: ('A' for Active; 'I' for Inactive)
REMARK    1  A    between atoms: C_1  and  N_18 
REMARK    2  A    between atoms: C_3  and  O_21 
REMARK    3  A    between atoms: C_4  and  O_25 
REMARK    4  A    between atoms: C_6  and  C_8 
REMARK    5  A    between atoms: C_8  and  O_30 
REMARK    6  A    between atoms: O_27  and  P_32 
REMARK    7  A    between atoms: O_27  and  P_31 
REMARK    8  A    between atoms: O_30  and  P_31 
ROOT
HETATM    1  C   UNL     1      41.348  35.482  15.813  1.00  0.00     0.262 C 
HETATM    2  C   UNL     1      40.629  34.288  15.296  1.00  0.00     0.198 C 
HETATM    3  C   UNL     1      40.125  33.540  16.463  1.00  0.00     0.182 C 
HETATM    4  C   UNL     1      39.743  34.623  17.436  1.00  0.00     0.180 C 
HETATM    5  O   UNL     1      40.518  35.832  17.016  1.00  0.00    -0.353 OA
ENDROOT
BRANCH   1   6
HETATM    6  N   UNL     1      42.661  35.329  16.317  1.00  0.00    -0.297 N 
HETATM    7  C   UNL     1      43.087  36.020  17.370  1.00  0.00     0.143 A 
HETATM    8  N   UNL     1      42.618  36.955  18.164  1.00  0.00    -0.316 N 
HETATM    9  C   UNL     1      44.423  35.545  17.602  1.00  0.00     0.119 A 
HETATM   10  C   UNL     1      43.322  37.419  19.142  1.00  0.00     0.181 A 
ATOM     11  HN  UNL     1      41.679  37.322  18.006  1.00  0.00     0.170 HD
HETATM   12 CL   UNL     1      42.538  38.662  20.120  1.00  0.00    -0.045 Cl
HETATM   13  N   UNL     1      44.548  37.037  19.409  1.00  0.00    -0.319 N 
HETATM   14  C   UNL     1      45.129  36.113  18.663  1.00  0.00     0.149 A 
ATOM     15  HN  UNL     1      45.053  37.452  20.192  1.00  0.00     0.169 HD
HETATM   16  N   UNL     1      46.465  35.660  18.950  1.00  0.00    -0.080 NA
HETATM   17  N   UNL     1      44.661  34.546  16.573  1.00  0.00    -0.346 N 
HETATM   18  C   UNL     1      43.531  34.457  15.846  1.00  0.00     0.188 A 
ATOM     19  HN  UNL     1      45.519  34.015  16.429  1.00  0.00     0.167 HD
ENDBRANCH   1   6
BRANCH   2  20
HETATM   20  O   UNL     1      39.472  34.726  14.543  1.00  0.00    -0.388 OA
ATOM     21  HO  UNL     1      39.671  35.557  14.129  1.00  0.00     0.210 HD
ENDBRANCH   2  20
BRANCH   4  22
HETATM   22  C   UNL     1      40.005  34.277  18.862  1.00  0.00     0.216 C 
BRANCH  22  23
HETATM   23  O   UNL     1      40.393  35.462  19.522  1.00  0.00    -0.287 OA
BRANCH  23  24
HETATM   24  P   UNL     1      39.575  35.889  20.866  1.00  0.00     0.418 P 
HETATM   25  O   UNL     1      38.697  37.042  20.627  1.00  0.00    -0.624 OA
HETATM   26  O   UNL     1      38.823  34.705  21.315  1.00  0.00    -0.624 OA
BRANCH  24  27
HETATM   27  O   UNL     1      40.673  36.383  21.950  1.00  0.00    -0.173 OA
BRANCH  27  28
HETATM   28  P   UNL     1      41.978  35.590  22.499  1.00  0.00     0.431 P 
HETATM   29  O   UNL     1      42.908  35.201  21.431  1.00  0.00    -0.616 OA
HETATM   30  O   UNL     1      41.499  34.432  23.250  1.00  0.00    -0.616 OA
HETATM   31  O   UNL     1      42.708  36.457  23.432  1.00  0.00    -0.616 OA
ENDBRANCH  27  28
ENDBRANCH  24  27
ENDBRANCH  23  24
ENDBRANCH  22  23
ENDBRANCH   4  22
BRANCH   3  32
HETATM   32  O   UNL     1      38.988  32.739  16.131  1.00  0.00    -0.390 OA
ATOM     33  HO  UNL     1      38.559  33.045  15.340  1.00  0.00     0.210 HD
ENDBRANCH   3  32
TORSDOF 8
ENDMDL
MODEL 11
REMARK VINA RESULT:    -8.103      3.758      5.574
REMARK INTER + INTRA:         -12.495
REMARK INTER:                 -11.700
REMARK INTRA:                  -0.796
REMARK UNBOUND:                -1.077
REMARK  8 active torsions:
REMARK  status: ('A' for Active; 'I' for Inactive)
REMARK    1  A    between atoms: C_1  and  N_18 
REMARK    2  A    between atoms: C_3  and  O_21 
REMARK    3  A    between atoms: C_4  and  O_25 
REMARK    4  A    between atoms: C_6  and  C_8 
REMARK    5  A    between atoms: C_8  and  O_30 
REMARK    6  A    between atoms: O_27  and  P_32 
REMARK    7  A    between atoms: O_27  and  P_31 
REMARK    8  A    between atoms: O_30  and  P_31 
ROOT
HETATM    1  C   UNL     1      40.663  35.226  20.846  1.00  0.00     0.262 C 
HETATM    2  C   UNL     1      39.239  35.473  21.191  1.00  0.00     0.198 C 
HETATM    3  C   UNL     1      38.448  35.263  19.965  1.00  0.00     0.182 C 
HETATM    4  C   UNL     1      39.152  34.121  19.283  1.00  0.00     0.180 C 
HETATM    5  O   UNL     1      40.539  34.113  19.845  1.00  0.00    -0.353 OA
ENDROOT
BRANCH   1   6
HETATM    6  N   UNL     1      41.391  36.233  20.171  1.00  0.00    -0.297 N 
HETATM    7  C   UNL     1      41.812  37.327  20.800  1.00  0.00     0.143 A 
HETATM    8  N   UNL     1      41.709  37.849  22.001  1.00  0.00    -0.316 N 
HETATM    9  C   UNL     1      42.550  38.058  19.807  1.00  0.00     0.119 A 
HETATM   10  C   UNL     1      42.273  38.973  22.294  1.00  0.00     0.181 A 
ATOM     11  HN  UNL     1      41.173  37.357  22.716  1.00  0.00     0.170 HD
HETATM   12 CL   UNL     1      42.047  39.527  23.954  1.00  0.00    -0.045 Cl
HETATM   13  N   UNL     1      42.957  39.696  21.438  1.00  0.00    -0.319 N 
HETATM   14  C   UNL     1      43.110  39.275  20.194  1.00  0.00     0.149 A 
ATOM     15  HN  UNL     1      43.369  40.581  21.733  1.00  0.00     0.169 HD
HETATM   16  N   UNL     1      43.875  40.040  19.243  1.00  0.00    -0.080 NA
HETATM   17  N   UNL     1      42.475  37.251  18.601  1.00  0.00    -0.346 N 
HETATM   18  C   UNL     1      41.772  36.146  18.912  1.00  0.00     0.188 A 
ATOM     19  HN  UNL     1      42.877  37.480  17.692  1.00  0.00     0.167 HD
ENDBRANCH   1   6
BRANCH   2  20
HETATM   20  O   UNL     1      38.808  34.474  22.148  1.00  0.00    -0.388 OA
ATOM     21  HO  UNL     1      38.789  33.626  21.720  1.00  0.00     0.210 HD
ENDBRANCH   2  20
BRANCH   4  22
HETATM   22  C   UNL     1      39.169  34.221  17.795  1.00  0.00     0.216 C 
BRANCH  22  23
HETATM   23  O   UNL     1      40.114  33.290  17.318  1.00  0.00    -0.287 OA
BRANCH  23  24
HETATM   24  P   UNL     1      40.838  33.602  15.891  1.00  0.00     0.418 P 
HETATM   25  O   UNL     1      41.187  32.367  15.175  1.00  0.00    -0.624 OA
HETATM   26  O   UNL     1      39.921  34.452  15.112  1.00  0.00    -0.624 OA
BRANCH  24  27
HETATM   27  O   UNL     1      42.244  34.335  16.223  1.00  0.00    -0.173 OA
BRANCH  27  28
HETATM   28  P   UNL     1      43.427  34.761  15.197  1.00  0.00     0.431 P 
HETATM   29  O   UNL     1      42.925  35.359  13.953  1.00  0.00    -0.616 OA
HETATM   30  O   UNL     1      44.230  33.567  14.940  1.00  0.00    -0.616 OA
HETATM   31  O   UNL     1      44.294  35.750  15.849  1.00  0.00    -0.616 OA
ENDBRANCH  27  28
ENDBRANCH  24  27
ENDBRANCH  23  24
ENDBRANCH  22  23
ENDBRANCH   4  22
BRANCH   3  32
HETATM   32  O   UNL     1      37.093  34.913  20.259  1.00  0.00    -0.390 OA
ATOM     33  HO  UNL     1      36.706  35.503  20.896  1.00  0.00     0.210 HD
ENDBRANCH   3  32
TORSDOF 8
ENDMDL
MODEL 12
REMARK VINA RESULT:    -7.960      4.405      5.917
REMARK INTER + INTRA:         -12.295
REMARK INTER:                 -10.907
REMARK INTRA:                  -1.388
REMARK UNBOUND:                -1.077
REMARK  8 active torsions:
REMARK  status: ('A' for Active; 'I' for Inactive)
REMARK    1  A    between atoms: C_1  and  N_18 
REMARK    2  A    between atoms: C_3  and  O_21 
REMARK    3  A    between atoms: C_4  and  O_25 
REMARK    4  A    between atoms: C_6  and  C_8 
REMARK    5  A    between atoms: C_8  and  O_30 
REMARK    6  A    between atoms: O_27  and  P_32 
REMARK    7  A    between atoms: O_27  and  P_31 
REMARK    8  A    between atoms: O_30  and  P_31 
ROOT
HETATM    1  C   UNL     1      42.235  35.820  21.974  1.00  0.00     0.262 C 
HETATM    2  C   UNL     1      41.033  35.303  22.680  1.00  0.00     0.198 C 
HETATM    3  C   UNL     1      39.921  35.309  21.712  1.00  0.00     0.182 C 
HETATM    4  C   UNL     1      40.583  34.938  20.412  1.00  0.00     0.180 C 
HETATM    5  O   UNL     1      42.032  35.266  20.593  1.00  0.00    -0.353 OA
ENDROOT
BRANCH   1   6
HETATM    6  N   UNL     1      42.372  37.215  21.783  1.00  0.00    -0.297 N 
HETATM    7  C   UNL     1      43.062  37.712  20.760  1.00  0.00     0.143 A 
HETATM    8  N   UNL     1      43.787  37.248  19.769  1.00  0.00    -0.316 N 
HETATM    9  C   UNL     1      42.916  39.137  20.880  1.00  0.00     0.119 A 
HETATM   10  C   UNL     1      44.333  38.041  18.909  1.00  0.00     0.181 A 
ATOM     11  HN  UNL     1      43.922  36.240  19.676  1.00  0.00     0.170 HD
HETATM   12 CL   UNL     1      45.263  37.254  17.632  1.00  0.00    -0.045 Cl
HETATM   13  N   UNL     1      44.246  39.349  18.958  1.00  0.00    -0.319 N 
HETATM   14  C   UNL     1      43.556  39.928  19.926  1.00  0.00     0.149 A 
ATOM     15  HN  UNL     1      44.711  39.919  18.252  1.00  0.00     0.169 HD
HETATM   16  N   UNL     1      43.426  41.361  19.989  1.00  0.00    -0.080 NA
HETATM   17  N   UNL     1      42.091  39.341  22.059  1.00  0.00    -0.346 N 
HETATM   18  C   UNL     1      41.783  38.121  22.537  1.00  0.00     0.188 A 
ATOM     19  HN  UNL     1      41.801  40.238  22.449  1.00  0.00     0.167 HD
ENDBRANCH   1   6
BRANCH   2  20
HETATM   20  O   UNL     1      41.264  33.922  23.049  1.00  0.00    -0.388 OA
ATOM     21  HO  UNL     1      42.160  33.829  23.350  1.00  0.00     0.210 HD
ENDBRANCH   2  20
BRANCH   4  22
HETATM   22  C   UNL     1      40.012  35.631  19.221  1.00  0.00     0.216 C 
BRANCH  22  23
HETATM   23  O   UNL     1      40.001  34.706  18.157  1.00  0.00    -0.287 OA
BRANCH  23  24
HETATM   24  P   UNL     1      40.901  35.048  16.841  1.00  0.00     0.418 P 
HETATM   25  O   UNL     1      40.116  35.735  15.807  1.00  0.00    -0.624 OA
HETATM   26  O   UNL     1      42.047  35.855  17.292  1.00  0.00    -0.624 OA
BRANCH  24  27
HETATM   27  O   UNL     1      41.346  33.632  16.192  1.00  0.00    -0.173 OA
BRANCH  27  28
HETATM   28  P   UNL     1      42.106  33.362  14.783  1.00  0.00     0.431 P 
HETATM   29  O   UNL     1      41.301  33.738  13.613  1.00  0.00    -0.616 OA
HETATM   30  O   UNL     1      42.479  31.949  14.754  1.00  0.00    -0.616 OA
HETATM   31  O   UNL     1      43.343  34.152  14.746  1.00  0.00    -0.616 OA
ENDBRANCH  27  28
ENDBRANCH  24  27
ENDBRANCH  23  24
ENDBRANCH  22  23
ENDBRANCH   4  22
BRANCH   3  32
HETATM   32  O   UNL     1      38.914  34.352  22.053  1.00  0.00    -0.390 OA
ATOM     33  HO  UNL     1      39.098  33.926  22.882  1.00  0.00     0.210 HD
ENDBRANCH   3  32
TORSDOF 8
ENDMDL
MODEL 13
REMARK VINA RESULT:    -7.945      2.025      2.844
REMARK INTER + INTRA:         -12.273
REMARK INTER:                 -11.461
REMARK INTRA:                  -0.813
REMARK UNBOUND:                -1.077
REMARK  8 active torsions:
REMARK  status: ('A' for Active; 'I' for Inactive)
REMARK    1  A    between atoms: C_1  and  N_18 
REMARK    2  A    between atoms: C_3  and  O_21 
REMARK    3  A    between atoms: C_4  and  O_25 
REMARK    4  A    between atoms: C_6  and  C_8 
REMARK    5  A    between atoms: C_8  and  O_30 
REMARK    6  A    between atoms: O_27  and  P_32 
REMARK    7  A    between atoms: O_27  and  P_31 
REMARK    8  A    between atoms: O_30  and  P_31 
ROOT
HETATM    1  C   UNL     1      41.342  37.395  21.319  1.00  0.00     0.262 C 
HETATM    2  C   UNL     1      42.811  37.422  21.541  1.00  0.00     0.198 C 
HETATM    3  C   UNL     1      43.429  36.608  20.478  1.00  0.00     0.182 C 
HETATM    4  C   UNL     1      42.570  36.888  19.275  1.00  0.00     0.180 C 
HETATM    5  O   UNL     1      41.266  37.379  19.819  1.00  0.00    -0.353 OA
ENDROOT
BRANCH   1   6
HETATM    6  N   UNL     1      40.607  36.257  21.726  1.00  0.00    -0.297 N 
HETATM    7  C   UNL     1      39.296  36.164  21.519  1.00  0.00     0.143 A 
HETATM    8  N   UNL     1      38.342  36.921  21.029  1.00  0.00    -0.316 N 
HETATM    9  C   UNL     1      38.941  34.861  22.008  1.00  0.00     0.119 A 
HETATM   10  C   UNL     1      37.122  36.502  20.962  1.00  0.00     0.181 A 
ATOM     11  HN  UNL     1      38.567  37.858  20.694  1.00  0.00     0.170 HD
HETATM   12 CL   UNL     1      35.965  37.638  20.264  1.00  0.00    -0.045 Cl
HETATM   13  N   UNL     1      36.725  35.328  21.393  1.00  0.00    -0.319 N 
HETATM   14  C   UNL     1      37.599  34.490  21.923  1.00  0.00     0.149 A 
ATOM     15  HN  UNL     1      35.743  35.063  21.319  1.00  0.00     0.169 HD
HETATM   16  N   UNL     1      37.191  33.186  22.382  1.00  0.00    -0.080 NA
HETATM   17  N   UNL     1      40.181  34.280  22.494  1.00  0.00    -0.346 N 
HETATM   18  C   UNL     1      41.152  35.184  22.265  1.00  0.00     0.188 A 
ATOM     19  HN  UNL     1      40.294  33.363  22.926  1.00  0.00     0.167 HD
ENDBRANCH   1   6
BRANCH   2  20
HETATM   20  O   UNL     1      43.287  38.779  21.364  1.00  0.00    -0.388 OA
ATOM     21  HO  UNL     1      43.665  38.862  20.497  1.00  0.00     0.210 HD
ENDBRANCH   2  20
BRANCH   4  22
HETATM   22  C   UNL     1      42.378  35.712  18.379  1.00  0.00     0.216 C 
BRANCH  22  23
HETATM   23  O   UNL     1      41.149  35.884  17.711  1.00  0.00    -0.287 OA
BRANCH  23  24
HETATM   24  P   UNL     1      40.784  34.847  16.507  1.00  0.00     0.418 P 
HETATM   25  O   UNL     1      40.248  33.580  17.022  1.00  0.00    -0.624 OA
HETATM   26  O   UNL     1      39.829  35.529  15.617  1.00  0.00    -0.624 OA
BRANCH  24  27
HETATM   27  O   UNL     1      42.175  34.473  15.766  1.00  0.00    -0.173 OA
BRANCH  27  28
HETATM   28  P   UNL     1      42.406  33.516  14.475  1.00  0.00     0.431 P 
HETATM   29  O   UNL     1      43.702  33.734  13.821  1.00  0.00    -0.616 OA
HETATM   30  O   UNL     1      41.290  33.745  13.560  1.00  0.00    -0.616 OA
HETATM   31  O   UNL     1      42.352  32.112  14.903  1.00  0.00    -0.616 OA
ENDBRANCH  27  28
ENDBRANCH  24  27
ENDBRANCH  23  24
ENDBRANCH  22  23
ENDBRANCH   4  22
BRANCH   3  32
HETATM   32  O   UNL     1      44.783  36.996  20.230  1.00  0.00    -0.390 OA
ATOM     33  HO  UNL     1      45.114  37.576  20.907  1.00  0.00     0.210 HD
ENDBRANCH   3  32
TORSDOF 8
ENDMDL
MODEL 14
REMARK VINA RESULT:    -7.941      3.783      5.441
REMARK INTER + INTRA:         -12.268
REMARK INTER:                 -10.988
REMARK INTRA:                  -1.280
REMARK UNBOUND:                -1.077
REMARK  8 active torsions:
REMARK  status: ('A' for Active; 'I' for Inactive)
REMARK    1  A    between atoms: C_1  and  N_18 
REMARK    2  A    between atoms: C_3  and  O_21 
REMARK    3  A    between atoms: C_4  and  O_25 
REMARK    4  A    between atoms: C_6  and  C_8 
REMARK    5  A    between atoms: C_8  and  O_30 
REMARK    6  A    between atoms: O_27  and  P_32 
REMARK    7  A    between atoms: O_27  and  P_31 
REMARK    8  A    between atoms: O_30  and  P_31 
ROOT
HETATM    1  C   UNL     1      43.237  38.288  18.454  1.00  0.00     0.262 C 
HETATM    2  C   UNL     1      44.565  38.955  18.457  1.00  0.00     0.198 C 
HETATM    3  C   UNL     1      45.586  37.897  18.338  1.00  0.00     0.182 C 
HETATM    4  C   UNL     1      44.947  36.893  17.417  1.00  0.00     0.180 C 
HETATM    5  O   UNL     1      43.475  37.151  17.502  1.00  0.00    -0.353 OA
ENDROOT
BRANCH   1   6
HETATM    6  N   UNL     1      42.775  37.671  19.640  1.00  0.00    -0.297 N 
HETATM    7  C   UNL     1      41.837  36.728  19.614  1.00  0.00     0.143 A 
HETATM    8  N   UNL     1      41.078  36.148  18.713  1.00  0.00    -0.316 N 
HETATM    9  C   UNL     1      41.693  36.319  20.984  1.00  0.00     0.119 A 
HETATM   10  C   UNL     1      40.242  35.219  19.039  1.00  0.00     0.181 A 
ATOM     11  HN  UNL     1      41.148  36.437  17.737  1.00  0.00     0.170 HD
HETATM   12 CL   UNL     1      39.307  34.536  17.707  1.00  0.00    -0.045 Cl
HETATM   13  N   UNL     1      40.054  34.800  20.268  1.00  0.00    -0.319 N 
HETATM   14  C   UNL     1      40.752  35.327  21.259  1.00  0.00     0.149 A 
ATOM     15  HN  UNL     1      39.369  34.068  20.458  1.00  0.00     0.169 HD
HETATM   16  N   UNL     1      40.580  34.867  22.613  1.00  0.00    -0.080 NA
HETATM   17  N   UNL     1      42.635  37.135  21.731  1.00  0.00    -0.346 N 
HETATM   18  C   UNL     1      43.271  37.916  20.837  1.00  0.00     0.188 A 
ATOM     19  HN  UNL     1      42.786  37.120  22.739  1.00  0.00     0.167 HD
ENDBRANCH   1   6
BRANCH   2  20
HETATM   20  O   UNL     1      44.677  39.784  17.275  1.00  0.00    -0.388 OA
ATOM     21  HO  UNL     1      44.937  39.241  16.541  1.00  0.00     0.210 HD
ENDBRANCH   2  20
BRANCH   4  22
HETATM   22  C   UNL     1      45.271  35.475  17.746  1.00  0.00     0.216 C 
BRANCH  22  23
HETATM   23  O   UNL     1      44.317  34.661  17.101  1.00  0.00    -0.287 OA
BRANCH  23  24
HETATM   24  P   UNL     1      44.614  34.213  15.562  1.00  0.00     0.418 P 
HETATM   25  O   UNL     1      44.649  35.368  14.655  1.00  0.00    -0.624 OA
HETATM   26  O   UNL     1      45.885  33.470  15.560  1.00  0.00    -0.624 OA
BRANCH  24  27
HETATM   27  O   UNL     1      43.358  33.310  15.082  1.00  0.00    -0.173 OA
BRANCH  27  28
HETATM   28  P   UNL     1      41.802  33.746  14.927  1.00  0.00     0.431 P 
HETATM   29  O   UNL     1      41.505  35.050  15.533  1.00  0.00    -0.616 OA
HETATM   30  O   UNL     1      40.992  32.679  15.511  1.00  0.00    -0.616 OA
HETATM   31  O   UNL     1      41.467  33.830  13.500  1.00  0.00    -0.616 OA
ENDBRANCH  27  28
ENDBRANCH  24  27
ENDBRANCH  23  24
ENDBRANCH  22  23
ENDBRANCH   4  22
BRANCH   3  32
HETATM   32  O   UNL     1      46.803  38.393  17.774  1.00  0.00    -0.390 OA
ATOM     33  HO  UNL     1      47.258  38.975  18.372  1.00  0.00     0.210 HD
ENDBRANCH   3  32
TORSDOF 8
ENDMDL
MODEL 15
REMARK VINA RESULT:    -7.849      1.485      2.052
REMARK INTER + INTRA:         -12.139
REMARK INTER:                 -10.984
REMARK INTRA:                  -1.154
REMARK UNBOUND:                -1.077
REMARK  8 active torsions:
REMARK  status: ('A' for Active; 'I' for Inactive)
REMARK    1  A    between atoms: C_1  and  N_18 
REMARK    2  A    between atoms: C_3  and  O_21 
REMARK    3  A    between atoms: C_4  and  O_25 
REMARK    4  A    between atoms: C_6  and  C_8 
REMARK    5  A    between atoms: C_8  and  O_30 
REMARK    6  A    between atoms: O_27  and  P_32 
REMARK    7  A    between atoms: O_27  and  P_31 
REMARK    8  A    between atoms: O_30  and  P_31 
ROOT
HETATM    1  C   UNL     1      39.435  36.506  21.996  1.00  0.00     0.262 C 
HETATM    2  C   UNL     1      40.798  36.137  22.460  1.00  0.00     0.198 C 
HETATM    3  C   UNL     1      41.535  35.625  21.290  1.00  0.00     0.182 C 
HETATM    4  C   UNL     1      41.037  36.481  20.157  1.00  0.00     0.180 C 
HETATM    5  O   UNL     1      39.720  37.025  20.615  1.00  0.00    -0.353 OA
ENDROOT
BRANCH   1   6
HETATM    6  N   UNL     1      38.475  35.486  21.804  1.00  0.00    -0.297 N 
HETATM    7  C   UNL     1      37.286  35.741  21.266  1.00  0.00     0.143 A 
HETATM    8  N   UNL     1      36.625  36.794  20.843  1.00  0.00    -0.316 N 
HETATM    9  C   UNL     1      36.639  34.461  21.185  1.00  0.00     0.119 A 
HETATM   10  C   UNL     1      35.438  36.685  20.345  1.00  0.00     0.181 A 
ATOM     11  HN  UNL     1      37.056  37.717  20.910  1.00  0.00     0.170 HD
HETATM   12 CL   UNL     1      34.696  38.196  19.813  1.00  0.00    -0.045 Cl
HETATM   13  N   UNL     1      34.786  35.551  20.244  1.00  0.00    -0.319 N 
HETATM   14  C   UNL     1      35.349  34.428  20.656  1.00  0.00     0.149 A 
ATOM     15  HN  UNL     1      33.846  35.537  19.849  1.00  0.00     0.169 HD
HETATM   16  N   UNL     1      34.662  33.168  20.535  1.00  0.00    -0.080 NA
HETATM   17  N   UNL     1      37.594  33.512  21.732  1.00  0.00    -0.346 N 
HETATM   18  C   UNL     1      38.695  34.212  22.064  1.00  0.00     0.188 A 
ATOM     19  HN  UNL     1      37.457  32.507  21.843  1.00  0.00     0.167 HD
ENDBRANCH   1   6
BRANCH   2  20
HETATM   20  O   UNL     1      41.484  37.335  22.900  1.00  0.00    -0.388 OA
ATOM     21  HO  UNL     1      42.281  37.085  23.352  1.00  0.00     0.210 HD
ENDBRANCH   2  20
BRANCH   4  22
HETATM   22  C   UNL     1      40.905  35.756  18.861  1.00  0.00     0.216 C 
BRANCH  22  23
HETATM   23  O   UNL     1      39.546  35.419  18.700  1.00  0.00    -0.287 OA
BRANCH  23  24
HETATM   24  P   UNL     1      39.191  33.932  18.132  1.00  0.00     0.418 P 
HETATM   25  O   UNL     1      40.141  32.922  18.616  1.00  0.00    -0.624 OA
HETATM   26  O   UNL     1      37.808  33.629  18.536  1.00  0.00    -0.624 OA
BRANCH  24  27
HETATM   27  O   UNL     1      39.378  33.983  16.524  1.00  0.00    -0.173 OA
BRANCH  27  28
HETATM   28  P   UNL     1      40.736  33.772  15.658  1.00  0.00     0.431 P 
HETATM   29  O   UNL     1      41.912  34.406  16.268  1.00  0.00    -0.616 OA
HETATM   30  O   UNL     1      40.478  34.284  14.314  1.00  0.00    -0.616 OA
HETATM   31  O   UNL     1      41.013  32.335  15.544  1.00  0.00    -0.616 OA
ENDBRANCH  27  28
ENDBRANCH  24  27
ENDBRANCH  23  24
ENDBRANCH  22  23
ENDBRANCH   4  22
BRANCH   3  32
HETATM   32  O   UNL     1      42.949  35.772  21.446  1.00  0.00    -0.390 OA
ATOM     33  HO  UNL     1      43.418  34.990  21.176  1.00  0.00     0.210 HD
ENDBRANCH   3  32
TORSDOF 8
ENDMDL
MODEL 16
REMARK VINA RESULT:    -7.799      5.860      7.702
REMARK INTER + INTRA:         -12.068
REMARK INTER:                 -10.535
REMARK INTRA:                  -1.533
REMARK UNBOUND:                -1.077
REMARK  8 active torsions:
REMARK  status: ('A' for Active; 'I' for Inactive)
REMARK    1  A    between atoms: C_1  and  N_18 
REMARK    2  A    between atoms: C_3  and  O_21 
REMARK    3  A    between atoms: C_4  and  O_25 
REMARK    4  A    between atoms: C_6  and  C_8 
REMARK    5  A    between atoms: C_8  and  O_30 
REMARK    6  A    between atoms: O_27  and  P_32 
REMARK    7  A    between atoms: O_27  and  P_31 
REMARK    8  A    between atoms: O_30  and  P_31 
ROOT
HETATM    1  C   UNL     1      43.345  37.559  21.103  1.00  0.00     0.262 C 
HETATM    2  C   UNL     1      41.983  37.020  20.852  1.00  0.00     0.198 C 
HETATM    3  C   UNL     1      41.920  36.633  19.430  1.00  0.00     0.182 C 
HETATM    4  C   UNL     1      43.300  36.101  19.149  1.00  0.00     0.180 C 
HETATM    5  O   UNL     1      44.180  36.692  20.205  1.00  0.00    -0.353 OA
ENDROOT
BRANCH   1   6
HETATM    6  N   UNL     1      43.645  38.882  20.702  1.00  0.00    -0.297 N 
HETATM    7  C   UNL     1      44.878  39.244  20.361  1.00  0.00     0.143 A 
HETATM    8  N   UNL     1      46.068  38.690  20.319  1.00  0.00    -0.316 N 
HETATM    9  C   UNL     1      44.759  40.620  19.965  1.00  0.00     0.119 A 
HETATM   10  C   UNL     1      47.100  39.350  19.909  1.00  0.00     0.181 A 
ATOM     11  HN  UNL     1      46.180  37.720  20.615  1.00  0.00     0.170 HD
HETATM   12 CL   UNL     1      48.621  38.455  19.902  1.00  0.00    -0.045 Cl
HETATM   13  N   UNL     1      47.067  40.608  19.538  1.00  0.00    -0.319 N 
HETATM   14  C   UNL     1      45.923  41.271  19.558  1.00  0.00     0.149 A 
ATOM     15  HN  UNL     1      47.922  41.073  19.234  1.00  0.00     0.169 HD
HETATM   16  N   UNL     1      45.856  42.646  19.133  1.00  0.00    -0.080 NA
HETATM   17  N   UNL     1      43.353  40.948  20.132  1.00  0.00    -0.346 N 
HETATM   18  C   UNL     1      42.739  39.830  20.562  1.00  0.00     0.188 A 
ATOM     19  HN  UNL     1      42.916  41.853  19.958  1.00  0.00     0.167 HD
ENDBRANCH   1   6
BRANCH   2  20
HETATM   20  O   UNL     1      41.808  35.808  21.627  1.00  0.00    -0.388 OA
ATOM     21  HO  UNL     1      42.471  35.179  21.369  1.00  0.00     0.210 HD
ENDBRANCH   2  20
BRANCH   4  22
HETATM   22  C   UNL     1      43.804  36.416  17.781  1.00  0.00     0.216 C 
BRANCH  22  23
HETATM   23  O   UNL     1      42.767  36.128  16.870  1.00  0.00    -0.287 OA
BRANCH  23  24
HETATM   24  P   UNL     1      43.007  34.925  15.797  1.00  0.00     0.418 P 
HETATM   25  O   UNL     1      42.924  35.404  14.411  1.00  0.00    -0.624 OA
HETATM   26  O   UNL     1      44.318  34.326  16.098  1.00  0.00    -0.624 OA
BRANCH  24  27
HETATM   27  O   UNL     1      41.783  33.878  15.978  1.00  0.00    -0.173 OA
BRANCH  27  28
HETATM   28  P   UNL     1      40.190  34.151  15.822  1.00  0.00     0.431 P 
HETATM   29  O   UNL     1      39.789  34.444  14.441  1.00  0.00    -0.616 OA
HETATM   30  O   UNL     1      39.845  35.242  16.731  1.00  0.00    -0.616 OA
HETATM   31  O   UNL     1      39.455  32.957  16.257  1.00  0.00    -0.616 OA
ENDBRANCH  27  28
ENDBRANCH  24  27
ENDBRANCH  23  24
ENDBRANCH  22  23
ENDBRANCH   4  22
BRANCH   3  32
HETATM   32  O   UNL     1      40.935  35.623  19.197  1.00  0.00    -0.390 OA
ATOM     33  HO  UNL     1      41.330  34.769  19.063  1.00  0.00     0.210 HD
ENDBRANCH   3  32
TORSDOF 8
ENDMDL
MODEL 17
REMARK VINA RESULT:    -7.777      5.793      8.258
REMARK INTER + INTRA:         -12.036
REMARK INTER:                 -11.048
REMARK INTRA:                  -0.988
REMARK UNBOUND:                -1.077
REMARK  8 active torsions:
REMARK  status: ('A' for Active; 'I' for Inactive)
REMARK    1  A    between atoms: C_1  and  N_18 
REMARK    2  A    between atoms: C_3  and  O_21 
REMARK    3  A    between atoms: C_4  and  O_25 
REMARK    4  A    between atoms: C_6  and  C_8 
REMARK    5  A    between atoms: C_8  and  O_30 
REMARK    6  A    between atoms: O_27  and  P_32 
REMARK    7  A    between atoms: O_27  and  P_31 
REMARK    8  A    between atoms: O_30  and  P_31 
ROOT
HETATM    1  C   UNL     1      45.445  35.469  17.242  1.00  0.00     0.262 C 
HETATM    2  C   UNL     1      46.573  36.227  16.639  1.00  0.00     0.198 C 
HETATM    3  C   UNL     1      46.228  37.659  16.714  1.00  0.00     0.182 C 
HETATM    4  C   UNL     1      45.502  37.778  18.026  1.00  0.00     0.180 C 
HETATM    5  O   UNL     1      45.016  36.398  18.343  1.00  0.00    -0.353 OA
ENDROOT
BRANCH   1   6
HETATM    6  N   UNL     1      44.275  35.255  16.479  1.00  0.00    -0.297 N 
HETATM    7  C   UNL     1      43.063  35.402  17.007  1.00  0.00     0.143 A 
HETATM    8  N   UNL     1      42.551  35.677  18.184  1.00  0.00    -0.316 N 
HETATM    9  C   UNL     1      42.158  35.161  15.916  1.00  0.00     0.119 A 
HETATM   10  C   UNL     1      41.273  35.757  18.357  1.00  0.00     0.181 A 
ATOM     11  HN  UNL     1      43.174  35.832  18.977  1.00  0.00     0.170 HD
HETATM   12 CL   UNL     1      40.752  36.149  19.997  1.00  0.00    -0.045 Cl
HETATM   13  N   UNL     1      40.390  35.546  17.411  1.00  0.00    -0.319 N 
HETATM   14  C   UNL     1      40.793  35.242  16.188  1.00  0.00     0.149 A 
ATOM     15  HN  UNL     1      39.394  35.615  17.618  1.00  0.00     0.169 HD
HETATM   16  N   UNL     1      39.842  35.029  15.127  1.00  0.00    -0.080 NA
HETATM   17  N   UNL     1      43.004  34.872  14.771  1.00  0.00    -0.346 N 
HETATM   18  C   UNL     1      44.279  34.972  15.191  1.00  0.00     0.188 A 
ATOM     19  HN  UNL     1      42.692  34.637  13.829  1.00  0.00     0.167 HD
ENDBRANCH   1   6
BRANCH   2  20
HETATM   20  O   UNL     1      47.756  36.034  17.452  1.00  0.00    -0.388 OA
ATOM     21  HO  UNL     1      47.555  36.271  18.349  1.00  0.00     0.210 HD
ENDBRANCH   2  20
BRANCH   4  22
HETATM   22  C   UNL     1      44.379  38.759  18.011  1.00  0.00     0.216 C 
BRANCH  22  23
HETATM   23  O   UNL     1      44.937  40.045  18.165  1.00  0.00    -0.287 OA
BRANCH  23  24
HETATM   24  P   UNL     1      44.780  40.776  19.613  1.00  0.00     0.418 P 
HETATM   25  O   UNL     1      45.297  39.940  20.705  1.00  0.00    -0.624 OA
HETATM   26  O   UNL     1      45.481  42.069  19.528  1.00  0.00    -0.624 OA
BRANCH  24  27
HETATM   27  O   UNL     1      43.193  40.939  19.892  1.00  0.00    -0.173 OA
BRANCH  27  28
HETATM   28  P   UNL     1      42.457  41.618  21.170  1.00  0.00     0.431 P 
HETATM   29  O   UNL     1      42.369  40.720  22.328  1.00  0.00    -0.616 OA
HETATM   30  O   UNL     1      41.138  42.062  20.726  1.00  0.00    -0.616 OA
HETATM   31  O   UNL     1      43.213  42.806  21.583  1.00  0.00    -0.616 OA
ENDBRANCH  27  28
ENDBRANCH  24  27
ENDBRANCH  23  24
ENDBRANCH  22  23
ENDBRANCH   4  22
BRANCH   3  32
HETATM   32  O   UNL     1      47.393  38.487  16.708  1.00  0.00    -0.390 OA
ATOM     33  HO  UNL     1      47.759  38.590  17.579  1.00  0.00     0.210 HD
ENDBRANCH   3  32
TORSDOF 8
ENDMDL
MODEL 18
REMARK VINA RESULT:    -7.773      4.298      6.227
REMARK INTER + INTRA:         -12.030
REMARK INTER:                 -10.836
REMARK INTRA:                  -1.194
REMARK UNBOUND:                -1.077
REMARK  8 active torsions:
REMARK  status: ('A' for Active; 'I' for Inactive)
REMARK    1  A    between atoms: C_1  and  N_18 
REMARK    2  A    between atoms: C_3  and  O_21 
REMARK    3  A    between atoms: C_4  and  O_25 
REMARK    4  A    between atoms: C_6  and  C_8 
REMARK    5  A    between atoms: C_8  and  O_30 
REMARK    6  A    between atoms: O_27  and  P_32 
REMARK    7  A    between atoms: O_27  and  P_31 
REMARK    8  A    between atoms: O_30  and  P_31 
ROOT
HETATM    1  C   UNL     1      42.299  35.648  21.026  1.00  0.00     0.262 C 
HETATM    2  C   UNL     1      42.800  36.234  19.755  1.00  0.00     0.198 C 
HETATM    3  C   UNL     1      42.613  37.694  19.841  1.00  0.00     0.182 C 
HETATM    4  C   UNL     1      42.891  37.999  21.288  1.00  0.00     0.180 C 
HETATM    5  O   UNL     1      42.689  36.708  22.017  1.00  0.00    -0.353 OA
ENDROOT
BRANCH   1   6
HETATM    6  N   UNL     1      40.905  35.486  21.205  1.00  0.00    -0.297 N 
HETATM    7  C   UNL     1      40.141  34.944  20.262  1.00  0.00     0.143 A 
HETATM    8  N   UNL     1      40.293  34.495  19.037  1.00  0.00    -0.316 N 
HETATM    9  C   UNL     1      38.825  34.899  20.839  1.00  0.00     0.119 A 
HETATM   10  C   UNL     1      39.299  34.002  18.376  1.00  0.00     0.181 A 
ATOM     11  HN  UNL     1      41.213  34.535  18.600  1.00  0.00     0.170 HD
HETATM   12 CL   UNL     1      39.677  33.431  16.749  1.00  0.00    -0.045 Cl
HETATM   13  N   UNL     1      38.072  33.934  18.837  1.00  0.00    -0.319 N 
HETATM   14  C   UNL     1      37.800  34.375  20.053  1.00  0.00     0.149 A 
ATOM     15  HN  UNL     1      37.330  33.541  18.257  1.00  0.00     0.169 HD
HETATM   16  N   UNL     1      36.465  34.290  20.590  1.00  0.00    -0.080 NA
HETATM   17  N   UNL     1      38.969  35.470  22.168  1.00  0.00    -0.346 N 
HETATM   18  C   UNL     1      40.270  35.780  22.322  1.00  0.00     0.188 A 
ATOM     19  HN  UNL     1      38.226  35.609  22.853  1.00  0.00     0.167 HD
ENDBRANCH   1   6
BRANCH   2  20
HETATM   20  O   UNL     1      44.225  35.996  19.658  1.00  0.00    -0.388 OA
ATOM     21  HO  UNL     1      44.454  35.856  18.747  1.00  0.00     0.210 HD
ENDBRANCH   2  20
BRANCH   4  22
HETATM   22  C   UNL     1      42.037  39.083  21.855  1.00  0.00     0.216 C 
BRANCH  22  23
HETATM   23  O   UNL     1      42.869  40.194  22.101  1.00  0.00    -0.287 OA
BRANCH  23  24
HETATM   24  P   UNL     1      42.699  41.501  21.143  1.00  0.00     0.418 P 
HETATM   25  O   UNL     1      41.313  41.667  20.686  1.00  0.00    -0.624 OA
HETATM   26  O   UNL     1      43.172  42.668  21.907  1.00  0.00    -0.624 OA
BRANCH  24  27
HETATM   27  O   UNL     1      43.576  41.228  19.809  1.00  0.00    -0.173 OA
BRANCH  27  28
HETATM   28  P   UNL     1      45.186  41.065  19.674  1.00  0.00     0.431 P 
HETATM   29  O   UNL     1      45.723  39.960  20.478  1.00  0.00    -0.616 OA
HETATM   30  O   UNL     1      45.784  42.346  20.044  1.00  0.00    -0.616 OA
HETATM   31  O   UNL     1      45.525  40.802  18.270  1.00  0.00    -0.616 OA
ENDBRANCH  27  28
ENDBRANCH  24  27
ENDBRANCH  23  24
ENDBRANCH  22  23
ENDBRANCH   4  22
BRANCH   3  32
HETATM   32  O   UNL     1      43.525  38.398  18.995  1.00  0.00    -0.390 OA
ATOM     33  HO  UNL     1      43.406  38.170  18.080  1.00  0.00     0.210 HD
ENDBRANCH   3  32
TORSDOF 8
ENDMDL
MODEL 19
REMARK VINA RESULT:    -7.772      1.980      2.675
REMARK INTER + INTRA:         -12.030
REMARK INTER:                 -11.604
REMARK INTRA:                  -0.426
REMARK UNBOUND:                -1.077
REMARK  8 active torsions:
REMARK  status: ('A' for Active; 'I' for Inactive)
REMARK    1  A    between atoms: C_1  and  N_18 
REMARK    2  A    between atoms: C_3  and  O_21 
REMARK    3  A    between atoms: C_4  and  O_25 
REMARK    4  A    between atoms: C_6  and  C_8 
REMARK    5  A    between atoms: C_8  and  O_30 
REMARK    6  A    between atoms: O_27  and  P_32 
REMARK    7  A    between atoms: O_27  and  P_31 
REMARK    8  A    between atoms: O_30  and  P_31 
ROOT
HETATM    1  C   UNL     1      40.990  36.359  21.166  1.00  0.00     0.262 C 
HETATM    2  C   UNL     1      42.406  36.051  21.495  1.00  0.00     0.198 C 
HETATM    3  C   UNL     1      43.089  35.725  20.229  1.00  0.00     0.182 C 
HETATM    4  C   UNL     1      42.448  36.655  19.234  1.00  0.00     0.180 C 
HETATM    5  O   UNL     1      41.134  37.042  19.836  1.00  0.00    -0.353 OA
ENDROOT
BRANCH   1   6
HETATM    6  N   UNL     1      40.093  35.293  20.925  1.00  0.00    -0.297 N 
HETATM    7  C   UNL     1      38.803  35.385  21.238  1.00  0.00     0.143 A 
HETATM    8  N   UNL     1      38.011  36.257  21.818  1.00  0.00    -0.316 N 
HETATM    9  C   UNL     1      38.230  34.146  20.789  1.00  0.00     0.119 A 
HETATM   10  C   UNL     1      36.749  36.025  21.960  1.00  0.00     0.181 A 
ATOM     11  HN  UNL     1      38.400  37.135  22.163  1.00  0.00     0.170 HD
HETATM   12 CL   UNL     1      35.825  37.306  22.748  1.00  0.00    -0.045 Cl
HETATM   13  N   UNL     1      36.159  34.917  21.580  1.00  0.00    -0.319 N 
HETATM   14  C   UNL     1      36.864  33.960  21.000  1.00  0.00     0.149 A 
ATOM     15  HN  UNL     1      35.158  34.794  21.731  1.00  0.00     0.169 HD
HETATM   16  N   UNL     1      36.235  32.744  20.553  1.00  0.00    -0.080 NA
HETATM   17  N   UNL     1      39.335  33.395  20.217  1.00  0.00    -0.346 N 
HETATM   18  C   UNL     1      40.430  34.173  20.318  1.00  0.00     0.188 A 
ATOM     19  HN  UNL     1      39.290  32.459  19.816  1.00  0.00     0.167 HD
ENDBRANCH   1   6
BRANCH   2  20
HETATM   20  O   UNL     1      43.037  37.245  22.019  1.00  0.00    -0.388 OA
ATOM     21  HO  UNL     1      43.884  37.012  22.381  1.00  0.00     0.210 HD
ENDBRANCH   2  20
BRANCH   4  22
HETATM   22  C   UNL     1      42.272  36.064  17.877  1.00  0.00     0.216 C 
BRANCH  22  23
HETATM   23  O   UNL     1      43.487  36.228  17.181  1.00  0.00    -0.287 OA
BRANCH  23  24
HETATM   24  P   UNL     1      43.858  35.139  16.026  1.00  0.00     0.418 P 
HETATM   25  O   UNL     1      44.742  35.710  15.001  1.00  0.00    -0.624 OA
HETATM   26  O   UNL     1      44.468  33.979  16.698  1.00  0.00    -0.624 OA
BRANCH  24  27
HETATM   27  O   UNL     1      42.477  34.769  15.264  1.00  0.00    -0.173 OA
BRANCH  27  28
HETATM   28  P   UNL     1      42.095  33.404  14.473  1.00  0.00     0.431 P 
HETATM   29  O   UNL     1      43.266  32.715  13.913  1.00  0.00    -0.616 OA
HETATM   30  O   UNL     1      41.128  33.758  13.437  1.00  0.00    -0.616 OA
HETATM   31  O   UNL     1      41.435  32.479  15.403  1.00  0.00    -0.616 OA
ENDBRANCH  27  28
ENDBRANCH  24  27
ENDBRANCH  23  24
ENDBRANCH  22  23
ENDBRANCH   4  22
BRANCH   3  32
HETATM   32  O   UNL     1      44.496  35.965  20.306  1.00  0.00    -0.390 OA
ATOM     33  HO  UNL     1      44.959  35.230  20.694  1.00  0.00     0.210 HD
ENDBRANCH   3  32
TORSDOF 8
ENDMDL
MODEL 20
REMARK VINA RESULT:    -7.617      6.448      8.884
REMARK INTER + INTRA:         -11.811
REMARK INTER:                 -10.195
REMARK INTRA:                  -1.616
REMARK UNBOUND:                -1.077
REMARK  8 active torsions:
REMARK  status: ('A' for Active; 'I' for Inactive)
REMARK    1  A    between atoms: C_1  and  N_18 
REMARK    2  A    between atoms: C_3  and  O_21 
REMARK    3  A    between atoms: C_4  and  O_25 
REMARK    4  A    between atoms: C_6  and  C_8 
REMARK    5  A    between atoms: C_8  and  O_30 
REMARK    6  A    between atoms: O_27  and  P_32 
REMARK    7  A    between atoms: O_27  and  P_31 
REMARK    8  A    between atoms: O_30  and  P_31 
ROOT
HETATM    1  C   UNL     1      46.436  34.332  15.810  1.00  0.00     0.262 C 
HETATM    2  C   UNL     1      47.473  34.426  14.749  1.00  0.00     0.198 C 
HETATM    3  C   UNL     1      47.670  35.858  14.455  1.00  0.00     0.182 C 
HETATM    4  C   UNL     1      47.519  36.517  15.799  1.00  0.00     0.180 C 
HETATM    5  O   UNL     1      46.743  35.549  16.636  1.00  0.00    -0.353 OA
ENDROOT
BRANCH   1   6
HETATM    6  N   UNL     1      45.075  34.474  15.455  1.00  0.00    -0.297 N 
HETATM    7  C   UNL     1      44.183  34.974  16.305  1.00  0.00     0.143 A 
HETATM    8  N   UNL     1      44.165  35.391  17.550  1.00  0.00    -0.316 N 
HETATM    9  C   UNL     1      42.953  35.012  15.562  1.00  0.00     0.119 A 
HETATM   10  C   UNL     1      43.083  35.846  18.089  1.00  0.00     0.181 A 
ATOM     11  HN  UNL     1      45.022  35.354  18.103  1.00  0.00     0.170 HD
HETATM   12 CL   UNL     1      43.235  36.376  19.766  1.00  0.00    -0.045 Cl
HETATM   13  N   UNL     1      41.926  35.905  17.474  1.00  0.00    -0.319 N 
HETATM   14  C   UNL     1      41.823  35.495  16.222  1.00  0.00     0.149 A 
ATOM     15  HN  UNL     1      41.107  36.268  17.963  1.00  0.00     0.169 HD
HETATM   16  N   UNL     1      40.568  35.571  15.518  1.00  0.00    -0.080 NA
HETATM   17  N   UNL     1      43.279  34.483  14.249  1.00  0.00    -0.346 N 
HETATM   18  C   UNL     1      44.596  34.200  14.257  1.00  0.00     0.188 A 
ATOM     19  HN  UNL     1      42.635  34.350  13.470  1.00  0.00     0.167 HD
ENDBRANCH   1   6
BRANCH   2  20
HETATM   20  O   UNL     1      48.728  33.926  15.272  1.00  0.00    -0.388 OA
ATOM     21  HO  UNL     1      48.547  33.227  15.889  1.00  0.00     0.210 HD
ENDBRANCH   2  20
BRANCH   4  22
HETATM   22  C   UNL     1      46.851  37.850  15.750  1.00  0.00     0.216 C 
BRANCH  22  23
HETATM   23  O   UNL     1      46.020  37.950  16.884  1.00  0.00    -0.287 OA
BRANCH  23  24
HETATM   24  P   UNL     1      45.958  39.383  17.659  1.00  0.00     0.418 P 
HETATM   25  O   UNL     1      47.300  39.906  17.948  1.00  0.00    -0.624 OA
HETATM   26  O   UNL     1      45.176  40.303  16.816  1.00  0.00    -0.624 OA
BRANCH  24  27
HETATM   27  O   UNL     1      45.268  39.112  19.100  1.00  0.00    -0.173 OA
BRANCH  27  28
HETATM   28  P   UNL     1      44.164  40.014  19.876  1.00  0.00     0.431 P 
HETATM   29  O   UNL     1      43.940  39.585  21.262  1.00  0.00    -0.616 OA
HETATM   30  O   UNL     1      42.934  39.969  19.088  1.00  0.00    -0.616 OA
HETATM   31  O   UNL     1      44.622  41.409  19.909  1.00  0.00    -0.616 OA
ENDBRANCH  27  28
ENDBRANCH  24  27
ENDBRANCH  23  24
ENDBRANCH  22  23
ENDBRANCH   4  22
BRANCH   3  32
HETATM   32  O   UNL     1      48.967  36.116  13.912  1.00  0.00    -0.390 OA
ATOM     33  HO  UNL     1      49.033  35.838  13.006  1.00  0.00     0.210 HD
ENDBRANCH   3  32
TORSDOF 8
ENDMDL
