REMARK  24 active torsions:
REMARK  status: ('A' for Active; 'I' for Inactive)
REMARK    1  A    between atoms: C_8  and  N_9 
REMARK    2  A    between atoms: N_13  and  C_14 
REMARK    3  A    between atoms: C_15  and  O_16 
REMARK    4  A    between atoms: C_17  and  O_18 
REMARK    5  A    between atoms: O_18  and  P_19 
REMARK    6  A    between atoms: P_19  and  O_21 
REMARK    7  A    between atoms: P_19  and  O_22 
REMARK    8  A    between atoms: C_23  and  C_25 
REMARK    9  A    between atoms: C_25  and  O_26 
REMARK   10  A    between atoms: O_26  and  P_27 
REMARK   11  A    between atoms: P_27  and  O_29 
REMARK   12  A    between atoms: P_27  and  O_30 
REMARK   13  A    between atoms: O_30  and  P_31 
REMARK   14  A    between atoms: P_31  and  O_33 
REMARK   15  A    between atoms: P_31  and  O_34 
REMARK   16  A    between atoms: O_34  and  C_36 
REMARK   17  A    between atoms: C_35  and  C_36 
REMARK   18  A    between atoms: C_35  and  C_39 
REMARK   19  A    between atoms: C_39  and  O_40 
REMARK   20  A    between atoms: C_39  and  C_41 
REMARK       I    between atoms: C_41  and  N_43 
REMARK   21  A    between atoms: N_43  and  C_44 
REMARK   22  A    between atoms: C_44  and  C_45 
REMARK   23  A    between atoms: C_45  and  C_46 
REMARK       I    between atoms: C_46  and  N_48 
REMARK   24  A    between atoms: N_48  and  C_49 
ROOT
HETATM    1  C   UNL     1       0.956  -0.637  -2.353  1.00  0.00     0.215 C 
ENDROOT
BRANCH   1   2
HETATM    2  C   UNL     1       1.152   0.631  -1.516  1.00  0.00     0.180 C 
HETATM    3  C   UNL     1       0.966   1.910  -2.331  1.00  0.00     0.197 C 
HETATM    4  C   UNL     1       1.950   2.871  -1.666  1.00  0.00     0.199 C 
HETATM    5  C   UNL     1       2.681   2.003  -0.628  1.00  0.00     0.262 C 
HETATM    6  O   UNL     1       2.448   0.658  -0.974  1.00  0.00    -0.353 OA
BRANCH   3   7
HETATM    7  O   UNL     1      -0.376   2.346  -2.229  1.00  0.00    -0.286 OA
BRANCH   7   8
HETATM    8  P   UNL     1      -0.807   3.213  -3.633  1.00  0.00     0.391 P 
HETATM    9  O   UNL     1      -0.988   2.251  -4.785  1.00  0.00    -0.632 OA
BRANCH   8  10
HETATM   10  O   UNL     1       0.391   4.346  -4.023  1.00  0.00    -0.307 OA
HETATM   11  H   UNL     1       0.025   4.843  -4.797  1.00  0.00     0.222 HD
ENDBRANCH   8  10
BRANCH   8  12
HETATM   12  O   UNL     1      -2.268   4.019  -3.352  1.00  0.00    -0.307 OA
HETATM   13  H   UNL     1      -2.089   4.594  -2.565  1.00  0.00     0.222 HD
ENDBRANCH   8  12
ENDBRANCH   7   8
ENDBRANCH   3   7
BRANCH   4  14
HETATM   14  O   UNL     1       1.328   3.987  -1.071  1.00  0.00    -0.388 OA
HETATM   15  H   UNL     1       0.704   3.659  -0.372  1.00  0.00     0.210 HD
ENDBRANCH   4  14
BRANCH   5  16
HETATM   16  N   UNL     1       4.122   2.283  -0.593  1.00  0.00    -0.297 N 
HETATM   17  C   UNL     1       5.121   1.442  -0.285  1.00  0.00     0.142 A 
HETATM   18  N   UNL     1       5.046   0.104  -0.081  1.00  0.00    -0.336 N 
HETATM   19  C   UNL     1       6.273   2.135  -0.138  1.00  0.00     0.122 A 
HETATM   20  C   UNL     1       6.189  -0.560   0.267  1.00  0.00     0.183 A 
ATOM     21  HN  UNL     1       4.161  -0.393  -0.184  1.00  0.00     0.168 HD
HETATM   22  N   UNL     1       7.372   0.121   0.414  1.00  0.00    -0.337 N 
HETATM   23  C   UNL     1       7.443   1.472   0.221  1.00  0.00     0.131 A 
ATOM     24  HN  UNL     1       8.215  -0.392   0.672  1.00  0.00     0.168 HD
HETATM   25  N   UNL     1       6.059   3.451  -0.318  1.00  0.00    -0.346 N 
HETATM   26  C   UNL     1       4.724   3.503  -0.584  1.00  0.00     0.188 A 
ATOM     27  HN  UNL     1       6.729   4.218  -0.268  1.00  0.00     0.167 HD
BRANCH  23  28
HETATM   28  N   UNL     1       8.676   2.167   0.407  1.00  0.00    -0.383 N 
HETATM   29  H   UNL     1       9.539   1.642   0.679  1.00  0.00     0.157 HD
HETATM   30  H   UNL     1       8.734   3.203   0.284  1.00  0.00     0.157 HD
ENDBRANCH  23  28
ENDBRANCH   5  16
ENDBRANCH   1   2
BRANCH   1  31
HETATM   31  O   UNL     1      -0.408  -0.757  -2.677  1.00  0.00    -0.294 OA
BRANCH  31  32
HETATM   32  P   UNL     1      -0.629  -2.107  -3.695  1.00  0.00     0.401 P 
HETATM   33  O   UNL     1       0.224  -3.283  -3.259  1.00  0.00    -0.631 OA
BRANCH  32  34
HETATM   34  O   UNL     1      -0.201  -1.674  -5.275  1.00  0.00    -0.307 OA
HETATM   35  H   UNL     1      -0.480  -2.445  -5.831  1.00  0.00     0.222 HD
ENDBRANCH  32  34
BRANCH  32  36
HETATM   36  O   UNL     1      -2.274  -2.538  -3.676  1.00  0.00    -0.195 OA
BRANCH  36  37
HETATM   37  P   UNL     1      -2.653  -3.155  -2.131  1.00  0.00     0.401 P 
HETATM   38  O   UNL     1      -2.698  -4.664  -2.215  1.00  0.00    -0.631 OA
BRANCH  37  39
HETATM   39  O   UNL     1      -4.187  -2.583  -1.699  1.00  0.00    -0.307 OA
HETATM   40  H   UNL     1      -4.773  -2.823  -2.460  1.00  0.00     0.222 HD
ENDBRANCH  37  39
BRANCH  37  41
HETATM   41  O   UNL     1      -1.516  -2.704  -0.933  1.00  0.00    -0.296 OA
BRANCH  41  42
HETATM   42  C   UNL     1      -2.072  -2.941   0.343  1.00  0.00     0.192 C 
BRANCH  42  43
HETATM   43  C   UNL     1      -0.956  -2.985   1.422  1.00  0.00     0.009 C 
HETATM   44  C   UNL     1       0.026  -4.129   1.066  1.00  0.00     0.020 C 
HETATM   45  C   UNL     1      -0.174  -1.651   1.432  1.00  0.00     0.020 C 
BRANCH  43  46
HETATM   46  C   UNL     1      -1.578  -3.276   2.829  1.00  0.00     0.219 C 
BRANCH  46  47
HETATM   47  O   UNL     1      -0.559  -3.426   3.789  1.00  0.00    -0.385 OA
HETATM   48  H   UNL     1      -0.959  -3.900   4.565  1.00  0.00     0.210 HD
ENDBRANCH  46  47
BRANCH  46  49
HETATM   49  C   UNL     1      -2.556  -2.216   3.290  1.00  0.00     0.247 C 
HETATM   50  O   UNL     1      -3.782  -2.352   3.026  1.00  0.00    -0.271 OA
HETATM   51  N   UNL     1      -2.101  -1.070   4.027  1.00  0.00    -0.358 N 
HETATM   52  H   UNL     1      -1.074  -0.905   4.132  1.00  0.00     0.162 HD
BRANCH  51  53
HETATM   53  C   UNL     1      -3.013  -0.137   4.689  1.00  0.00     0.132 C 
BRANCH  53  54
HETATM   54  C   UNL     1      -3.190   1.138   3.859  1.00  0.00     0.122 C 
BRANCH  54  55
HETATM   55  C   UNL     1      -3.976   0.878   2.607  1.00  0.00     0.219 C 
HETATM   56  O   UNL     1      -5.210   0.635   2.693  1.00  0.00    -0.274 OA
HETATM   57  N   UNL     1      -3.331   0.895   1.327  1.00  0.00    -0.361 N 
HETATM   58  H   UNL     1      -2.312   1.119   1.280  1.00  0.00     0.162 HD
BRANCH  57  59
HETATM   59  C   UNL     1      -4.076   0.625   0.097  1.00  0.00     0.118 C 
HETATM   60  C   UNL     1      -3.164   0.708  -1.120  1.00  0.00     0.026 C 
ENDBRANCH  57  59
ENDBRANCH  54  55
ENDBRANCH  53  54
ENDBRANCH  51  53
ENDBRANCH  46  49
ENDBRANCH  43  46
ENDBRANCH  42  43
ENDBRANCH  41  42
ENDBRANCH  37  41
ENDBRANCH  36  37
ENDBRANCH  32  36
ENDBRANCH  31  32
ENDBRANCH   1  31
TORSDOF 24
