REMARK  2 active torsions:
REMARK  status: ('A' for Active; 'I' for Inactive)
REMARK    1  A    between atoms: C_4  and  N_12 
REMARK    2  A    between atoms: C_10  and  N_18 
ROOT
HETATM    1  C   UNL     1      -1.157  -2.130  -0.923  1.00  0.00     0.185 A 
HETATM    2  C   UNL     1       0.551  -2.569  -2.089  1.00  0.00     0.117 A 
HETATM    3  C   UNL     1       0.798  -1.436  -1.388  1.00  0.00     0.154 A 
HETATM    4  C   UNL     1       2.930  -1.254  -2.342  1.00  0.00     0.678 A 
HETATM    5  C   UNL     1       1.515  -3.079  -2.950  1.00  0.00     0.147 A 
HETATM    6  N   UNL     1      -0.273  -1.137  -0.632  1.00  0.00    -0.322 N 
HETATM    7  N   UNL     1      -0.681  -3.036  -1.818  1.00  0.00    -0.347 N 
ATOM      8  HN  UNL     1      -1.144  -3.865  -2.192  1.00  0.00     0.167 HD
HETATM    9  N   UNL     1       1.972  -0.759  -1.496  1.00  0.00    -0.174 N 
HETATM   10  N   UNL     1       2.695  -2.402  -3.056  1.00  0.00    -0.179 N 
ATOM     11  HN  UNL     1       3.419  -2.757  -3.680  1.00  0.00     0.185 HD
HETATM   12  S   UNL     1       1.263  -4.441  -3.819  1.00  0.00    -0.057 SA
HETATM   13  H   UNL     1       2.152   0.115  -0.956  1.00  0.00     0.186 HD
ENDROOT
BRANCH   6  14
HETATM   14  C   UNL     1      -0.482   0.006   0.268  1.00  0.00     0.092 C 
HETATM   15  C   UNL     1      -0.817  -0.480   1.691  1.00  0.00     0.026 C 
HETATM   16  C   UNL     1      -1.068   0.706   2.630  1.00  0.00     0.002 C 
HETATM   17  C   UNL     1      -2.179   1.613   2.086  1.00  0.00     0.000 C 
HETATM   18  C   UNL     1      -1.851   2.099   0.668  1.00  0.00     0.002 C 
HETATM   19  C   UNL     1      -1.599   0.916  -0.275  1.00  0.00     0.026 C 
ENDBRANCH   6  14
BRANCH   4  20
HETATM   20  N   UNL     1       4.179  -0.578  -2.485  1.00  0.00    -0.234 N 
HETATM   21  H   UNL     1       4.910  -0.953  -3.130  1.00  0.00     0.174 HD
HETATM   22  H   UNL     1       4.377   0.296  -1.950  1.00  0.00     0.174 HD
ENDBRANCH   4  20
TORSDOF 2
