REMARK  4 active torsions:
REMARK  status: ('A' for Active; 'I' for Inactive)
REMARK    1  A    between atoms: C_1  and  C_2 
REMARK    2  A    between atoms: C_4  and  O_5 
REMARK    3  A    between atoms: C_7  and  O_8 
REMARK    4  A    between atoms: C_10  and  N_11 
ROOT
HETATM    1  N   UNL     1      10.833  -0.515  39.361  1.00  0.00    -0.297 N 
HETATM    2  C   UNL     1      11.390  -0.373  38.139  1.00  0.00     0.188 A 
HETATM    3  N   UNL     1      11.536  -1.571  37.524  1.00  0.00    -0.346 N 
ATOM      4  HN  UNL     1      11.918  -1.730  36.592  1.00  0.00     0.167 HD
HETATM    5  C   UNL     1      11.085  -2.508  38.368  1.00  0.00     0.122 A 
HETATM    6  C   UNL     1      10.629  -1.814  39.591  1.00  0.00     0.142 A 
HETATM    7  N   UNL     1      10.114  -2.557  40.604  1.00  0.00    -0.336 N 
ATOM      8  HN  UNL     1       9.788  -2.094  41.453  1.00  0.00     0.168 HD
HETATM    9  C   UNL     1      10.028  -3.895  40.503  1.00  0.00     0.183 A 
HETATM   10  N   UNL     1      10.415  -4.574  39.414  1.00  0.00    -0.337 N 
ATOM     11  HN  UNL     1      10.304  -5.588  39.406  1.00  0.00     0.168 HD
HETATM   12  C   UNL     1      10.945  -3.973  38.327  1.00  0.00     0.131 A 
HETATM   13  N   UNL     1      11.343  -4.686  37.236  1.00  0.00    -0.383 N 
ATOM     14  HN1 UNL     1      11.743  -4.232  36.415  1.00  0.00     0.157 HD
ATOM     15  HN2 UNL     1      11.246  -5.701  37.208  1.00  0.00     0.157 HD
ENDROOT
BRANCH   1  16
HETATM   16  C   UNL     1      10.618   0.626  40.282  1.00  0.00     0.262 C 
HETATM   17  C   UNL     1       9.614   0.370  41.398  1.00  0.00     0.198 C 
HETATM   18  C   UNL     1      10.437   0.091  42.642  1.00  0.00     0.180 C 
HETATM   19  C   UNL     1      11.705   0.859  42.354  1.00  0.00     0.155 C 
HETATM   20  O   UNL     1      11.885   0.779  40.935  1.00  0.00    -0.356 OA
BRANCH  17  21
HETATM   21  O   UNL     1       8.890   1.583  41.578  1.00  0.00    -0.388 OA
ATOM     22  HO  UNL     1       8.264   1.423  42.274  1.00  0.00     0.210 HD
ENDBRANCH  17  21
BRANCH  18  23
HETATM   23  O   UNL     1       9.803   0.575  43.838  1.00  0.00    -0.390 OA
ATOM     24  HO  UNL     1      10.318   0.400  44.617  1.00  0.00     0.210 HD
ENDBRANCH  18  23
BRANCH  19  25
HETATM   25  C   UNL     1      12.933   0.288  43.035  1.00  0.00     0.030 C 
HETATM   26  C   UNL     1      14.049   1.293  42.824  1.00  0.00     0.007 C 
ENDBRANCH  19  25
ENDBRANCH   1  16
TORSDOF 4
