MODEL 1
REMARK VINA RESULT:    -7.557      0.000      0.000
REMARK INTER + INTRA:          -9.223
REMARK INTER:                  -8.882
REMARK INTRA:                  -0.341
REMARK UNBOUND:                -0.341
REMARK  3 active torsions:
REMARK  status: ('A' for Active; 'I' for Inactive)
REMARK    1  A    between atoms: C_1  and  N_7 
REMARK    2  A    between atoms: N_7  and  C_12 
REMARK    3  A    between atoms: C_9  and  C_10 
ROOT
HETATM    1  C   UNL     1      22.591  33.239   9.242  1.00  0.00     0.104 A 
HETATM    2  C   UNL     1      22.201  35.418   8.399  1.00  0.00     0.121 A 
HETATM    3  C   UNL     1      21.876  34.432   9.339  1.00  0.00     0.082 A 
HETATM    4  C   UNL     1      23.741  34.094   7.478  1.00  0.00     0.182 A 
HETATM    5  N   UNL     1      23.542  33.074   8.313  1.00  0.00    -0.339 N 
ATOM      6  HN  UNL     1      24.085  32.213   8.248  1.00  0.00     0.168 HD
HETATM    7  N   UNL     1      23.115  35.274   7.433  1.00  0.00    -0.348 N 
ATOM      8  HN  UNL     1      23.313  35.990   6.735  1.00  0.00     0.166 HD
ENDROOT
BRANCH   1   9
HETATM    9  N   UNL     1      22.320  32.141  10.010  1.00  0.00    -0.371 N 
ATOM     10  HN  UNL     1      23.064  31.840  10.639  1.00  0.00     0.161 HD
BRANCH   9  11
HETATM   11  C   UNL     1      21.090  31.345  10.035  1.00  0.00     0.086 C 
HETATM   12  C   UNL     1      21.422  29.861  10.025  1.00  0.00     0.052 C 
HETATM   13  C   UNL     1      20.151  29.026  10.050  1.00  0.00     0.234 C 
HETATM   14  N   UNL     1      19.302  29.380  11.209  1.00  0.00    -0.075 N 
HETATM   15  C   UNL     1      18.961  30.818  11.223  1.00  0.00     0.234 C 
ATOM     16  HN2 UNL     1      18.464  28.800  11.246  1.00  0.00     0.277 HD
ATOM     17  HN1 UNL     1      19.735  29.093  12.087  1.00  0.00     0.277 HD
HETATM   18  C   UNL     1      20.220  31.675  11.232  1.00  0.00     0.052 C 
ENDBRANCH   9  11
ENDBRANCH   1   9
BRANCH   2  19
HETATM   19  C   UNL     1      21.555  36.778   8.442  1.00  0.00     0.432 C 
HETATM   20  F   UNL     1      20.534  36.821   9.269  1.00  0.00    -0.165 F 
HETATM   21  F   UNL     1      22.380  37.705   8.895  1.00  0.00    -0.165 F 
HETATM   22  F   UNL     1      21.111  37.161   7.258  1.00  0.00    -0.165 F 
ENDBRANCH   2  19
TORSDOF 3
ENDMDL
MODEL 2
REMARK VINA RESULT:    -7.309      1.202      1.820
REMARK INTER + INTRA:          -8.932
REMARK INTER:                  -8.573
REMARK INTRA:                  -0.359
REMARK UNBOUND:                -0.341
REMARK  3 active torsions:
REMARK  status: ('A' for Active; 'I' for Inactive)
REMARK    1  A    between atoms: C_1  and  N_7 
REMARK    2  A    between atoms: N_7  and  C_12 
REMARK    3  A    between atoms: C_9  and  C_10 
ROOT
HETATM    1  C   UNL     1      22.435  33.469   9.088  1.00  0.00     0.104 A 
HETATM    2  C   UNL     1      22.151  35.737   8.466  1.00  0.00     0.121 A 
HETATM    3  C   UNL     1      21.681  34.636   9.193  1.00  0.00     0.082 A 
HETATM    4  C   UNL     1      23.877  34.550   7.703  1.00  0.00     0.182 A 
HETATM    5  N   UNL     1      23.552  33.430   8.347  1.00  0.00    -0.339 N 
ATOM      6  HN  UNL     1      24.123  32.587   8.281  1.00  0.00     0.168 HD
HETATM    7  N   UNL     1      23.237  35.724   7.686  1.00  0.00    -0.348 N 
ATOM      8  HN  UNL     1      23.545  36.525   7.136  1.00  0.00     0.166 HD
ENDROOT
BRANCH   1   9
HETATM    9  N   UNL     1      22.055  32.280   9.643  1.00  0.00    -0.371 N 
ATOM     10  HN  UNL     1      22.227  31.447   9.081  1.00  0.00     0.161 HD
BRANCH   9  11
HETATM   11  C   UNL     1      21.431  32.059  10.951  1.00  0.00     0.086 C 
HETATM   12  C   UNL     1      20.076  31.388  10.781  1.00  0.00     0.052 C 
HETATM   13  C   UNL     1      19.419  31.156  12.133  1.00  0.00     0.234 C 
HETATM   14  N   UNL     1      20.300  30.373  13.028  1.00  0.00    -0.075 N 
HETATM   15  C   UNL     1      21.616  31.022  13.211  1.00  0.00     0.234 C 
ATOM     16  HN2 UNL     1      19.849  30.189  13.924  1.00  0.00     0.277 HD
ATOM     17  HN1 UNL     1      20.403  29.412  12.700  1.00  0.00     0.277 HD
HETATM   18  C   UNL     1      22.308  31.234  11.872  1.00  0.00     0.052 C 
ENDBRANCH   9  11
ENDBRANCH   1   9
BRANCH   2  19
HETATM   19  C   UNL     1      21.469  37.077   8.554  1.00  0.00     0.432 C 
HETATM   20  F   UNL     1      22.116  38.012   7.895  1.00  0.00    -0.165 F 
HETATM   21  F   UNL     1      20.268  37.061   8.003  1.00  0.00    -0.165 F 
HETATM   22  F   UNL     1      21.346  37.497   9.801  1.00  0.00    -0.165 F 
ENDBRANCH   2  19
TORSDOF 3
ENDMDL
MODEL 3
REMARK VINA RESULT:    -7.152      4.029      6.568
REMARK INTER + INTRA:          -8.748
REMARK INTER:                  -8.406
REMARK INTRA:                  -0.342
REMARK UNBOUND:                -0.341
REMARK  3 active torsions:
REMARK  status: ('A' for Active; 'I' for Inactive)
REMARK    1  A    between atoms: C_1  and  N_7 
REMARK    2  A    between atoms: N_7  and  C_12 
REMARK    3  A    between atoms: C_9  and  C_10 
ROOT
HETATM    1  C   UNL     1      21.249  32.002  10.575  1.00  0.00     0.104 A 
HETATM    2  C   UNL     1      22.376  30.211  11.639  1.00  0.00     0.121 A 
HETATM    3  C   UNL     1      22.113  31.585  11.586  1.00  0.00     0.082 A 
HETATM    4  C   UNL     1      21.041  29.845   9.890  1.00  0.00     0.182 A 
HETATM    5  N   UNL     1      20.696  31.122   9.728  1.00  0.00    -0.339 N 
ATOM      6  HN  UNL     1      20.046  31.415   8.999  1.00  0.00     0.168 HD
HETATM    7  N   UNL     1      21.875  29.309  10.787  1.00  0.00    -0.348 N 
ATOM      8  HN  UNL     1      22.105  28.316  10.819  1.00  0.00     0.166 HD
ENDROOT
BRANCH   1   9
HETATM    9  N   UNL     1      20.977  33.316  10.319  1.00  0.00    -0.371 N 
ATOM     10  HN  UNL     1      20.365  33.786  10.985  1.00  0.00     0.161 HD
BRANCH   9  11
HETATM   11  C   UNL     1      21.460  34.130   9.199  1.00  0.00     0.086 C 
HETATM   12  C   UNL     1      21.262  35.608   9.499  1.00  0.00     0.052 C 
HETATM   13  C   UNL     1      21.759  36.462   8.342  1.00  0.00     0.234 C 
HETATM   14  N   UNL     1      23.173  36.161   8.026  1.00  0.00    -0.075 N 
HETATM   15  C   UNL     1      23.376  34.729   7.720  1.00  0.00     0.234 C 
ATOM     16  HN2 UNL     1      23.518  36.754   7.271  1.00  0.00     0.277 HD
ATOM     17  HN1 UNL     1      23.795  36.472   8.772  1.00  0.00     0.277 HD
HETATM   18  C   UNL     1      22.916  33.855   8.878  1.00  0.00     0.052 C 
ENDBRANCH   9  11
ENDBRANCH   1   9
BRANCH   2  19
HETATM   19  C   UNL     1      23.233  29.622  12.729  1.00  0.00     0.432 C 
HETATM   20  F   UNL     1      24.112  28.762  12.265  1.00  0.00    -0.165 F 
HETATM   21  F   UNL     1      23.964  30.541  13.335  1.00  0.00    -0.165 F 
HETATM   22  F   UNL     1      22.519  28.991  13.644  1.00  0.00    -0.165 F 
ENDBRANCH   2  19
TORSDOF 3
ENDMDL
MODEL 4
REMARK VINA RESULT:    -7.077      2.239      2.815
REMARK INTER + INTRA:          -8.659
REMARK INTER:                  -8.307
REMARK INTRA:                  -0.353
REMARK UNBOUND:                -0.341
REMARK  3 active torsions:
REMARK  status: ('A' for Active; 'I' for Inactive)
REMARK    1  A    between atoms: C_1  and  N_7 
REMARK    2  A    between atoms: N_7  and  C_12 
REMARK    3  A    between atoms: C_9  and  C_10 
ROOT
HETATM    1  C   UNL     1      21.301  34.003   9.857  1.00  0.00     0.104 A 
HETATM    2  C   UNL     1      22.720  34.717   8.101  1.00  0.00     0.121 A 
HETATM    3  C   UNL     1      22.266  33.667   8.909  1.00  0.00     0.082 A 
HETATM    4  C   UNL     1      21.363  36.155   9.129  1.00  0.00     0.182 A 
HETATM    5  N   UNL     1      20.834  35.256   9.959  1.00  0.00    -0.339 N 
ATOM      6  HN  UNL     1      20.113  35.506  10.635  1.00  0.00     0.168 HD
HETATM    7  N   UNL     1      22.308  35.985   8.200  1.00  0.00    -0.348 N 
ATOM      8  HN  UNL     1      22.676  36.743   7.626  1.00  0.00     0.166 HD
ENDROOT
BRANCH   1   9
HETATM    9  N   UNL     1      20.835  33.123  10.793  1.00  0.00    -0.371 N 
ATOM     10  HN  UNL     1      20.406  33.535  11.622  1.00  0.00     0.161 HD
BRANCH   9  11
HETATM   11  C   UNL     1      20.877  31.659  10.748  1.00  0.00     0.086 C 
HETATM   12  C   UNL     1      22.019  31.138  11.607  1.00  0.00     0.052 C 
HETATM   13  C   UNL     1      22.072  29.618  11.566  1.00  0.00     0.234 C 
HETATM   14  N   UNL     1      20.778  29.028  11.974  1.00  0.00    -0.075 N 
HETATM   15  C   UNL     1      19.662  29.516  11.138  1.00  0.00     0.234 C 
ATOM     16  HN2 UNL     1      20.821  28.009  11.977  1.00  0.00     0.277 HD
ATOM     17  HN1 UNL     1      20.596  29.184  12.965  1.00  0.00     0.277 HD
HETATM   18  C   UNL     1      19.568  31.035  11.190  1.00  0.00     0.052 C 
ENDBRANCH   9  11
ENDBRANCH   1   9
BRANCH   2  19
HETATM   19  C   UNL     1      23.706  34.472   6.988  1.00  0.00     0.432 C 
HETATM   20  F   UNL     1      24.284  33.295   7.082  1.00  0.00    -0.165 F 
HETATM   21  F   UNL     1      23.123  34.455   5.802  1.00  0.00    -0.165 F 
HETATM   22  F   UNL     1      24.670  35.376   6.963  1.00  0.00    -0.165 F 
ENDBRANCH   2  19
TORSDOF 3
ENDMDL
MODEL 5
REMARK VINA RESULT:    -6.996      2.004      2.823
REMARK INTER + INTRA:          -8.564
REMARK INTER:                  -8.358
REMARK INTRA:                  -0.206
REMARK UNBOUND:                -0.341
REMARK  3 active torsions:
REMARK  status: ('A' for Active; 'I' for Inactive)
REMARK    1  A    between atoms: C_1  and  N_7 
REMARK    2  A    between atoms: N_7  and  C_12 
REMARK    3  A    between atoms: C_9  and  C_10 
ROOT
HETATM    1  C   UNL     1      21.751  32.980  10.389  1.00  0.00     0.104 A 
HETATM    2  C   UNL     1      22.637  34.205   8.566  1.00  0.00     0.121 A 
HETATM    3  C   UNL     1      22.644  33.025   9.320  1.00  0.00     0.082 A 
HETATM    4  C   UNL     1      21.035  35.069   9.853  1.00  0.00     0.182 A 
HETATM    5  N   UNL     1      20.928  34.006  10.650  1.00  0.00    -0.339 N 
ATOM      6  HN  UNL     1      20.257  33.973  11.416  1.00  0.00     0.168 HD
HETATM    7  N   UNL     1      21.860  35.263   8.820  1.00  0.00    -0.348 N 
ATOM      8  HN  UNL     1      21.893  36.128   8.281  1.00  0.00     0.166 HD
ENDROOT
BRANCH   1   9
HETATM    9  N   UNL     1      21.710  31.950  11.286  1.00  0.00    -0.371 N 
ATOM     10  HN  UNL     1      22.352  32.017  12.076  1.00  0.00     0.161 HD
BRANCH   9  11
HETATM   11  C   UNL     1      20.853  30.761  11.249  1.00  0.00     0.086 C 
HETATM   12  C   UNL     1      19.389  31.163  11.344  1.00  0.00     0.052 C 
HETATM   13  C   UNL     1      18.492  29.935  11.307  1.00  0.00     0.234 C 
HETATM   14  N   UNL     1      18.750  29.122  10.098  1.00  0.00    -0.075 N 
HETATM   15  C   UNL     1      20.167  28.713  10.001  1.00  0.00     0.234 C 
ATOM     16  HN2 UNL     1      18.128  28.315  10.055  1.00  0.00     0.277 HD
ATOM     17  HN1 UNL     1      18.445  29.605   9.254  1.00  0.00     0.277 HD
HETATM   18  C   UNL     1      21.084  29.929  10.002  1.00  0.00     0.052 C 
ENDBRANCH   9  11
ENDBRANCH   1   9
BRANCH   2  19
HETATM   19  C   UNL     1      23.501  34.351   7.340  1.00  0.00     0.432 C 
HETATM   20  F   UNL     1      24.341  35.357   7.437  1.00  0.00    -0.165 F 
HETATM   21  F   UNL     1      24.274  33.297   7.149  1.00  0.00    -0.165 F 
HETATM   22  F   UNL     1      22.788  34.546   6.244  1.00  0.00    -0.165 F 
ENDBRANCH   2  19
TORSDOF 3
ENDMDL
MODEL 6
REMARK VINA RESULT:    -6.886      2.495      3.239
REMARK INTER + INTRA:          -8.435
REMARK INTER:                  -8.078
REMARK INTRA:                  -0.358
REMARK UNBOUND:                -0.341
REMARK  3 active torsions:
REMARK  status: ('A' for Active; 'I' for Inactive)
REMARK    1  A    between atoms: C_1  and  N_7 
REMARK    2  A    between atoms: N_7  and  C_12 
REMARK    3  A    between atoms: C_9  and  C_10 
ROOT
HETATM    1  C   UNL     1      21.327  33.821   9.969  1.00  0.00     0.104 A 
HETATM    2  C   UNL     1      22.706  34.623   8.218  1.00  0.00     0.121 A 
HETATM    3  C   UNL     1      22.304  33.543   9.014  1.00  0.00     0.082 A 
HETATM    4  C   UNL     1      21.285  35.982   9.269  1.00  0.00     0.182 A 
HETATM    5  N   UNL     1      20.802  35.049  10.088  1.00  0.00    -0.339 N 
ATOM      6  HN  UNL     1      20.072  35.256  10.769  1.00  0.00     0.168 HD
HETATM    7  N   UNL     1      22.235  35.869   8.335  1.00  0.00    -0.348 N 
ATOM      8  HN  UNL     1      22.565  36.651   7.770  1.00  0.00     0.166 HD
ENDROOT
BRANCH   1   9
HETATM    9  N   UNL     1      20.906  32.909  10.895  1.00  0.00    -0.371 N 
ATOM     10  HN  UNL     1      19.932  32.984  11.188  1.00  0.00     0.161 HD
BRANCH   9  11
HETATM   11  C   UNL     1      21.687  31.835  11.517  1.00  0.00     0.086 C 
HETATM   12  C   UNL     1      21.498  31.852  13.026  1.00  0.00     0.052 C 
HETATM   13  C   UNL     1      22.306  30.743  13.681  1.00  0.00     0.234 C 
HETATM   14  N   UNL     1      21.960  29.422  13.110  1.00  0.00    -0.075 N 
HETATM   15  C   UNL     1      22.152  29.388  11.645  1.00  0.00     0.234 C 
ATOM     16  HN2 UNL     1      22.478  28.673  13.569  1.00  0.00     0.277 HD
ATOM     17  HN1 UNL     1      21.013  29.143  13.366  1.00  0.00     0.277 HD
HETATM   18  C   UNL     1      21.326  30.470  10.963  1.00  0.00     0.052 C 
ENDBRANCH   9  11
ENDBRANCH   1   9
BRANCH   2  19
HETATM   19  C   UNL     1      23.699  34.439   7.100  1.00  0.00     0.432 C 
HETATM   20  F   UNL     1      24.276  33.259   7.133  1.00  0.00    -0.165 F 
HETATM   21  F   UNL     1      23.123  34.488   5.912  1.00  0.00    -0.165 F 
HETATM   22  F   UNL     1      24.663  35.343   7.131  1.00  0.00    -0.165 F 
ENDBRANCH   2  19
TORSDOF 3
ENDMDL
MODEL 7
REMARK VINA RESULT:    -6.656      1.900      2.563
REMARK INTER + INTRA:          -8.164
REMARK INTER:                  -7.831
REMARK INTRA:                  -0.332
REMARK UNBOUND:                -0.341
REMARK  3 active torsions:
REMARK  status: ('A' for Active; 'I' for Inactive)
REMARK    1  A    between atoms: C_1  and  N_7 
REMARK    2  A    between atoms: N_7  and  C_12 
REMARK    3  A    between atoms: C_9  and  C_10 
ROOT
HETATM    1  C   UNL     1      22.079  32.628  10.063  1.00  0.00     0.104 A 
HETATM    2  C   UNL     1      22.597  34.533   8.755  1.00  0.00     0.121 A 
HETATM    3  C   UNL     1      22.883  33.201   9.079  1.00  0.00     0.082 A 
HETATM    4  C   UNL     1      20.931  34.582  10.236  1.00  0.00     0.182 A 
HETATM    5  N   UNL     1      21.084  33.320  10.637  1.00  0.00    -0.339 N 
ATOM      6  HN  UNL     1      20.477  32.903  11.343  1.00  0.00     0.168 HD
HETATM    7  N   UNL     1      21.640  35.267   9.333  1.00  0.00    -0.348 N 
ATOM      8  HN  UNL     1      21.469  36.247   9.109  1.00  0.00     0.166 HD
ENDROOT
BRANCH   1   9
HETATM    9  N   UNL     1      22.296  31.379  10.572  1.00  0.00    -0.371 N 
ATOM     10  HN  UNL     1      23.268  31.075  10.618  1.00  0.00     0.161 HD
BRANCH   9  11
HETATM   11  C   UNL     1      21.297  30.423  11.059  1.00  0.00     0.086 C 
HETATM   12  C   UNL     1      20.892  29.470   9.945  1.00  0.00     0.052 C 
HETATM   13  C   UNL     1      19.854  28.475  10.441  1.00  0.00     0.234 C 
HETATM   14  N   UNL     1      20.344  27.738  11.627  1.00  0.00    -0.075 N 
HETATM   15  C   UNL     1      20.730  28.653  12.722  1.00  0.00     0.234 C 
ATOM     16  HN2 UNL     1      19.663  27.048  11.942  1.00  0.00     0.277 HD
ATOM     17  HN1 UNL     1      21.109  27.109  11.383  1.00  0.00     0.277 HD
HETATM   18  C   UNL     1      21.793  29.638  12.259  1.00  0.00     0.052 C 
ENDBRANCH   9  11
ENDBRANCH   1   9
BRANCH   2  19
HETATM   19  C   UNL     1      23.342  35.244   7.656  1.00  0.00     0.432 C 
HETATM   20  F   UNL     1      24.638  35.030   7.710  1.00  0.00    -0.165 F 
HETATM   21  F   UNL     1      22.990  34.812   6.457  1.00  0.00    -0.165 F 
HETATM   22  F   UNL     1      23.164  36.553   7.694  1.00  0.00    -0.165 F 
ENDBRANCH   2  19
TORSDOF 3
ENDMDL
MODEL 8
REMARK VINA RESULT:    -6.398      3.939      6.626
REMARK INTER + INTRA:          -7.861
REMARK INTER:                  -7.618
REMARK INTRA:                  -0.243
REMARK UNBOUND:                -0.341
REMARK  3 active torsions:
REMARK  status: ('A' for Active; 'I' for Inactive)
REMARK    1  A    between atoms: C_1  and  N_7 
REMARK    2  A    between atoms: N_7  and  C_12 
REMARK    3  A    between atoms: C_9  and  C_10 
ROOT
HETATM    1  C   UNL     1      20.888  31.520  10.435  1.00  0.00     0.104 A 
HETATM    2  C   UNL     1      19.318  29.860  11.059  1.00  0.00     0.121 A 
HETATM    3  C   UNL     1      19.677  31.214  11.054  1.00  0.00     0.082 A 
HETATM    4  C   UNL     1      21.175  29.318   9.952  1.00  0.00     0.182 A 
HETATM    5  N   UNL     1      21.637  30.566   9.865  1.00  0.00    -0.339 N 
ATOM      6  HN  UNL     1      22.514  30.783   9.391  1.00  0.00     0.168 HD
HETATM    7  N   UNL     1      20.057  28.876  10.537  1.00  0.00    -0.348 N 
ATOM      8  HN  UNL     1      19.796  27.892  10.580  1.00  0.00     0.166 HD
ENDROOT
BRANCH   1   9
HETATM    9  N   UNL     1      21.435  32.772  10.441  1.00  0.00    -0.371 N 
ATOM     10  HN  UNL     1      21.650  33.164  11.357  1.00  0.00     0.161 HD
BRANCH   9  11
HETATM   11  C   UNL     1      21.748  33.620   9.286  1.00  0.00     0.086 C 
HETATM   12  C   UNL     1      21.458  35.078   9.608  1.00  0.00     0.052 C 
HETATM   13  C   UNL     1      21.780  35.965   8.415  1.00  0.00     0.234 C 
HETATM   14  N   UNL     1      23.179  35.779   7.973  1.00  0.00    -0.075 N 
HETATM   15  C   UNL     1      23.471  34.367   7.645  1.00  0.00     0.234 C 
ATOM     16  HN2 UNL     1      23.407  36.395   7.193  1.00  0.00     0.277 HD
ATOM     17  HN1 UNL     1      23.837  36.143   8.663  1.00  0.00     0.277 HD
HETATM   18  C   UNL     1      23.188  33.463   8.836  1.00  0.00     0.052 C 
ENDBRANCH   9  11
ENDBRANCH   1   9
BRANCH   2  19
HETATM   19  C   UNL     1      17.999  29.407  11.629  1.00  0.00     0.432 C 
HETATM   20  F   UNL     1      18.045  28.170  12.074  1.00  0.00    -0.165 F 
HETATM   21  F   UNL     1      17.643  30.119  12.683  1.00  0.00    -0.165 F 
HETATM   22  F   UNL     1      17.022  29.462  10.741  1.00  0.00    -0.165 F 
ENDBRANCH   2  19
TORSDOF 3
ENDMDL
MODEL 9
REMARK VINA RESULT:    -6.382      3.893      6.625
REMARK INTER + INTRA:          -7.843
REMARK INTER:                  -7.495
REMARK INTRA:                  -0.348
REMARK UNBOUND:                -0.341
REMARK  3 active torsions:
REMARK  status: ('A' for Active; 'I' for Inactive)
REMARK    1  A    between atoms: C_1  and  N_7 
REMARK    2  A    between atoms: N_7  and  C_12 
REMARK    3  A    between atoms: C_9  and  C_10 
ROOT
HETATM    1  C   UNL     1      20.871  32.433  11.128  1.00  0.00     0.104 A 
HETATM    2  C   UNL     1      20.202  30.164  11.240  1.00  0.00     0.121 A 
HETATM    3  C   UNL     1      20.270  31.347  10.494  1.00  0.00     0.082 A 
HETATM    4  C   UNL     1      21.226  31.140  12.963  1.00  0.00     0.182 A 
HETATM    5  N   UNL     1      21.367  32.324  12.369  1.00  0.00    -0.339 N 
ATOM      6  HN  UNL     1      21.828  33.107  12.833  1.00  0.00     0.168 HD
HETATM    7  N   UNL     1      20.649  30.029  12.493  1.00  0.00    -0.348 N 
ATOM      8  HN  UNL     1      20.559  29.170  13.034  1.00  0.00     0.166 HD
ENDROOT
BRANCH   1   9
HETATM    9  N   UNL     1      20.919  33.685  10.582  1.00  0.00    -0.371 N 
ATOM     10  HN  UNL     1      20.460  34.424  11.114  1.00  0.00     0.161 HD
BRANCH   9  11
HETATM   11  C   UNL     1      21.551  34.092   9.324  1.00  0.00     0.086 C 
HETATM   12  C   UNL     1      21.666  35.607   9.257  1.00  0.00     0.052 C 
HETATM   13  C   UNL     1      22.319  36.039   7.954  1.00  0.00     0.234 C 
HETATM   14  N   UNL     1      23.638  35.390   7.777  1.00  0.00    -0.075 N 
HETATM   15  C   UNL     1      23.538  33.916   7.826  1.00  0.00     0.234 C 
ATOM     16  HN2 UNL     1      24.092  35.703   6.918  1.00  0.00     0.277 HD
ATOM     17  HN1 UNL     1      24.316  35.739   8.454  1.00  0.00     0.277 HD
HETATM   18  C   UNL     1      22.916  33.458   9.138  1.00  0.00     0.052 C 
ENDBRANCH   9  11
ENDBRANCH   1   9
BRANCH   2  19
HETATM   19  C   UNL     1      19.645  28.898  10.643  1.00  0.00     0.432 C 
HETATM   20  F   UNL     1      18.353  28.981  10.410  1.00  0.00    -0.165 F 
HETATM   21  F   UNL     1      20.172  28.632   9.461  1.00  0.00    -0.165 F 
HETATM   22  F   UNL     1      19.830  27.850  11.426  1.00  0.00    -0.165 F 
ENDBRANCH   2  19
TORSDOF 3
ENDMDL
MODEL 10
REMARK VINA RESULT:    -6.258      4.180      6.541
REMARK INTER + INTRA:          -7.697
REMARK INTER:                  -7.480
REMARK INTRA:                  -0.217
REMARK UNBOUND:                -0.341
REMARK  3 active torsions:
REMARK  status: ('A' for Active; 'I' for Inactive)
REMARK    1  A    between atoms: C_1  and  N_7 
REMARK    2  A    between atoms: N_7  and  C_12 
REMARK    3  A    between atoms: C_9  and  C_10 
ROOT
HETATM    1  C   UNL     1      21.273  32.607  10.832  1.00  0.00     0.104 A 
HETATM    2  C   UNL     1      22.196  31.216  12.511  1.00  0.00     0.121 A 
HETATM    3  C   UNL     1      22.073  31.510  11.148  1.00  0.00     0.082 A 
HETATM    4  C   UNL     1      20.882  32.936  13.046  1.00  0.00     0.182 A 
HETATM    5  N   UNL     1      20.684  33.336  11.790  1.00  0.00    -0.339 N 
ATOM      6  HN  UNL     1      20.114  34.153  11.570  1.00  0.00     0.168 HD
HETATM    7  N   UNL     1      21.592  31.894  13.492  1.00  0.00    -0.348 N 
ATOM      8  HN  UNL     1      21.665  31.644  14.478  1.00  0.00     0.166 HD
ENDROOT
BRANCH   1   9
HETATM    9  N   UNL     1      20.961  32.960   9.549  1.00  0.00    -0.371 N 
ATOM     10  HN  UNL     1      20.105  32.560   9.168  1.00  0.00     0.161 HD
BRANCH   9  11
HETATM   11  C   UNL     1      21.713  33.846   8.655  1.00  0.00     0.086 C 
HETATM   12  C   UNL     1      21.662  35.278   9.167  1.00  0.00     0.052 C 
HETATM   13  C   UNL     1      22.438  36.206   8.245  1.00  0.00     0.234 C 
HETATM   14  N   UNL     1      23.834  35.743   8.073  1.00  0.00    -0.075 N 
HETATM   15  C   UNL     1      23.897  34.357   7.564  1.00  0.00     0.234 C 
ATOM     16  HN2 UNL     1      24.365  36.381   7.481  1.00  0.00     0.277 HD
ATOM     17  HN1 UNL     1      24.367  35.845   8.937  1.00  0.00     0.277 HD
HETATM   18  C   UNL     1      23.154  33.404   8.489  1.00  0.00     0.052 C 
ENDBRANCH   9  11
ENDBRANCH   1   9
BRANCH   2  19
HETATM   19  C   UNL     1      23.091  30.102  12.990  1.00  0.00     0.432 C 
HETATM   20  F   UNL     1      24.220  30.549  13.495  1.00  0.00    -0.165 F 
HETATM   21  F   UNL     1      22.543  29.414  13.976  1.00  0.00    -0.165 F 
HETATM   22  F   UNL     1      23.406  29.260  12.022  1.00  0.00    -0.165 F 
ENDBRANCH   2  19
TORSDOF 3
ENDMDL
MODEL 11
REMARK VINA RESULT:    -6.170      4.124      6.669
REMARK INTER + INTRA:          -7.593
REMARK INTER:                  -7.255
REMARK INTRA:                  -0.338
REMARK UNBOUND:                -0.341
REMARK  3 active torsions:
REMARK  status: ('A' for Active; 'I' for Inactive)
REMARK    1  A    between atoms: C_1  and  N_7 
REMARK    2  A    between atoms: N_7  and  C_12 
REMARK    3  A    between atoms: C_9  and  C_10 
ROOT
HETATM    1  C   UNL     1      21.055  32.441  11.013  1.00  0.00     0.104 A 
HETATM    2  C   UNL     1      21.965  30.732  12.378  1.00  0.00     0.121 A 
HETATM    3  C   UNL     1      22.104  31.555  11.253  1.00  0.00     0.082 A 
HETATM    4  C   UNL     1      19.994  31.655  12.863  1.00  0.00     0.182 A 
HETATM    5  N   UNL     1      19.997  32.502  11.834  1.00  0.00    -0.339 N 
ATOM      6  HN  UNL     1      19.235  33.162  11.679  1.00  0.00     0.168 HD
HETATM    7  N   UNL     1      20.907  30.737  13.196  1.00  0.00    -0.348 N 
ATOM      8  HN  UNL     1      20.807  30.106  13.991  1.00  0.00     0.166 HD
ENDROOT
BRANCH   1   9
HETATM    9  N   UNL     1      20.983  33.232   9.901  1.00  0.00    -0.371 N 
ATOM     10  HN  UNL     1      20.284  32.968   9.207  1.00  0.00     0.161 HD
BRANCH   9  11
HETATM   11  C   UNL     1      21.792  34.413   9.587  1.00  0.00     0.086 C 
HETATM   12  C   UNL     1      22.580  34.187   8.306  1.00  0.00     0.052 C 
HETATM   13  C   UNL     1      23.424  35.408   7.972  1.00  0.00     0.234 C 
HETATM   14  N   UNL     1      22.588  36.626   7.882  1.00  0.00    -0.075 N 
HETATM   15  C   UNL     1      21.826  36.864   9.126  1.00  0.00     0.234 C 
ATOM     16  HN2 UNL     1      23.147  37.441   7.628  1.00  0.00     0.277 HD
ATOM     17  HN1 UNL     1      21.972  36.594   7.070  1.00  0.00     0.277 HD
HETATM   18  C   UNL     1      20.948  35.667   9.463  1.00  0.00     0.052 C 
ENDBRANCH   9  11
ENDBRANCH   1   9
BRANCH   2  19
HETATM   19  C   UNL     1      23.061  29.785  12.790  1.00  0.00     0.432 C 
HETATM   20  F   UNL     1      22.667  28.933  13.710  1.00  0.00    -0.165 F 
HETATM   21  F   UNL     1      23.459  29.020  11.788  1.00  0.00    -0.165 F 
HETATM   22  F   UNL     1      24.116  30.416  13.273  1.00  0.00    -0.165 F 
ENDBRANCH   2  19
TORSDOF 3
ENDMDL
MODEL 12
REMARK VINA RESULT:    -6.111      3.417      6.142
REMARK INTER + INTRA:          -7.524
REMARK INTER:                  -7.291
REMARK INTRA:                  -0.233
REMARK UNBOUND:                -0.341
REMARK  3 active torsions:
REMARK  status: ('A' for Active; 'I' for Inactive)
REMARK    1  A    between atoms: C_1  and  N_7 
REMARK    2  A    between atoms: N_7  and  C_12 
REMARK    3  A    between atoms: C_9  and  C_10 
ROOT
HETATM    1  C   UNL     1      21.830  31.770  10.792  1.00  0.00     0.104 A 
HETATM    2  C   UNL     1      20.317  31.385  12.573  1.00  0.00     0.121 A 
HETATM    3  C   UNL     1      20.539  31.917  11.297  1.00  0.00     0.082 A 
HETATM    4  C   UNL     1      22.431  30.686  12.697  1.00  0.00     0.182 A 
HETATM    5  N   UNL     1      22.781  31.136  11.492  1.00  0.00    -0.339 N 
ATOM      6  HN  UNL     1      23.723  31.005  11.123  1.00  0.00     0.168 HD
HETATM    7  N   UNL     1      21.250  30.782  13.317  1.00  0.00    -0.348 N 
ATOM      8  HN  UNL     1      21.079  30.431  14.259  1.00  0.00     0.166 HD
ENDROOT
BRANCH   1   9
HETATM    9  N   UNL     1      22.240  32.327   9.614  1.00  0.00    -0.371 N 
ATOM     10  HN  UNL     1      22.304  31.695   8.816  1.00  0.00     0.161 HD
BRANCH   9  11
HETATM   11  C   UNL     1      22.599  33.726   9.359  1.00  0.00     0.086 C 
HETATM   12  C   UNL     1      23.384  33.841   8.061  1.00  0.00     0.052 C 
HETATM   13  C   UNL     1      23.763  35.288   7.789  1.00  0.00     0.234 C 
HETATM   14  N   UNL     1      22.567  36.159   7.774  1.00  0.00    -0.075 N 
HETATM   15  C   UNL     1      21.802  36.067   9.036  1.00  0.00     0.234 C 
ATOM     16  HN2 UNL     1      22.815  37.125   7.561  1.00  0.00     0.277 HD
ATOM     17  HN1 UNL     1      21.975  35.963   6.967  1.00  0.00     0.277 HD
HETATM   18  C   UNL     1      21.383  34.630   9.313  1.00  0.00     0.052 C 
ENDBRANCH   9  11
ENDBRANCH   1   9
BRANCH   2  19
HETATM   19  C   UNL     1      18.948  31.411  13.200  1.00  0.00     0.432 C 
HETATM   20  F   UNL     1      18.974  31.087  14.474  1.00  0.00    -0.165 F 
HETATM   21  F   UNL     1      18.416  32.620  13.182  1.00  0.00    -0.165 F 
HETATM   22  F   UNL     1      18.108  30.580  12.608  1.00  0.00    -0.165 F 
ENDBRANCH   2  19
TORSDOF 3
ENDMDL
MODEL 13
REMARK VINA RESULT:    -5.914      3.608      4.520
REMARK INTER + INTRA:          -7.292
REMARK INTER:                  -6.943
REMARK INTRA:                  -0.349
REMARK UNBOUND:                -0.341
REMARK  3 active torsions:
REMARK  status: ('A' for Active; 'I' for Inactive)
REMARK    1  A    between atoms: C_1  and  N_7 
REMARK    2  A    between atoms: N_7  and  C_12 
REMARK    3  A    between atoms: C_9  and  C_10 
ROOT
HETATM    1  C   UNL     1      22.040  31.092  11.516  1.00  0.00     0.104 A 
HETATM    2  C   UNL     1      21.507  33.142  10.456  1.00  0.00     0.121 A 
HETATM    3  C   UNL     1      22.319  32.002  10.497  1.00  0.00     0.082 A 
HETATM    4  C   UNL     1      20.351  32.436  12.227  1.00  0.00     0.182 A 
HETATM    5  N   UNL     1      21.037  31.304  12.380  1.00  0.00    -0.339 N 
ATOM      6  HN  UNL     1      20.812  30.633  13.115  1.00  0.00     0.168 HD
HETATM    7  N   UNL     1      20.524  33.407  11.324  1.00  0.00    -0.348 N 
ATOM      8  HN  UNL     1      19.966  34.259  11.300  1.00  0.00     0.166 HD
ENDROOT
BRANCH   1   9
HETATM    9  N   UNL     1      22.805  29.987  11.762  1.00  0.00    -0.371 N 
ATOM     10  HN  UNL     1      23.157  29.494  10.942  1.00  0.00     0.161 HD
BRANCH   9  11
HETATM   11  C   UNL     1      23.181  29.428  13.064  1.00  0.00     0.086 C 
HETATM   12  C   UNL     1      23.614  27.978  12.909  1.00  0.00     0.052 C 
HETATM   13  C   UNL     1      24.005  27.388  14.256  1.00  0.00     0.234 C 
HETATM   14  N   UNL     1      25.056  28.198  14.909  1.00  0.00    -0.075 N 
HETATM   15  C   UNL     1      24.642  29.607  15.077  1.00  0.00     0.234 C 
ATOM     16  HN2 UNL     1      25.342  27.787  15.798  1.00  0.00     0.277 HD
ATOM     17  HN1 UNL     1      25.942  28.130  14.408  1.00  0.00     0.277 HD
HETATM   18  C   UNL     1      24.278  30.230  13.736  1.00  0.00     0.052 C 
ENDBRANCH   9  11
ENDBRANCH   1   9
BRANCH   2  19
HETATM   19  C   UNL     1      21.656  34.165   9.361  1.00  0.00     0.432 C 
HETATM   20  F   UNL     1      20.842  35.186   9.515  1.00  0.00    -0.165 F 
HETATM   21  F   UNL     1      22.860  34.708   9.349  1.00  0.00    -0.165 F 
HETATM   22  F   UNL     1      21.418  33.658   8.164  1.00  0.00    -0.165 F 
ENDBRANCH   2  19
TORSDOF 3
ENDMDL
MODEL 14
REMARK VINA RESULT:    -5.841      3.435      5.852
REMARK INTER + INTRA:          -7.207
REMARK INTER:                  -7.159
REMARK INTRA:                  -0.048
REMARK UNBOUND:                -0.341
REMARK  3 active torsions:
REMARK  status: ('A' for Active; 'I' for Inactive)
REMARK    1  A    between atoms: C_1  and  N_7 
REMARK    2  A    between atoms: N_7  and  C_12 
REMARK    3  A    between atoms: C_9  and  C_10 
ROOT
HETATM    1  C   UNL     1      21.541  32.140  10.884  1.00  0.00     0.104 A 
HETATM    2  C   UNL     1      21.254  32.614  13.187  1.00  0.00     0.121 A 
HETATM    3  C   UNL     1      20.866  32.864  11.865  1.00  0.00     0.082 A 
HETATM    4  C   UNL     1      22.759  31.116  12.507  1.00  0.00     0.182 A 
HETATM    5  N   UNL     1      22.486  31.246  11.209  1.00  0.00    -0.339 N 
ATOM      6  HN  UNL     1      22.971  30.696  10.499  1.00  0.00     0.168 HD
HETATM    7  N   UNL     1      22.219  31.761  13.546  1.00  0.00    -0.348 N 
ATOM      8  HN  UNL     1      22.513  31.617  14.512  1.00  0.00     0.166 HD
ENDROOT
BRANCH   1   9
HETATM    9  N   UNL     1      21.360  32.345   9.545  1.00  0.00    -0.371 N 
ATOM     10  HN  UNL     1      20.871  31.606   9.040  1.00  0.00     0.161 HD
BRANCH   9  11
HETATM   11  C   UNL     1      21.786  33.500   8.749  1.00  0.00     0.086 C 
HETATM   12  C   UNL     1      21.366  34.793   9.430  1.00  0.00     0.052 C 
HETATM   13  C   UNL     1      21.802  35.998   8.610  1.00  0.00     0.234 C 
HETATM   14  N   UNL     1      23.259  35.971   8.356  1.00  0.00    -0.075 N 
HETATM   15  C   UNL     1      23.679  34.724   7.682  1.00  0.00     0.234 C 
ATOM     16  HN2 UNL     1      23.559  36.794   7.833  1.00  0.00     0.277 HD
ATOM     17  HN1 UNL     1      23.788  36.125   9.215  1.00  0.00     0.277 HD
HETATM   18  C   UNL     1      23.282  33.504   8.502  1.00  0.00     0.052 C 
ENDBRANCH   9  11
ENDBRANCH   1   9
BRANCH   2  19
HETATM   19  C   UNL     1      20.551  33.276  14.343  1.00  0.00     0.432 C 
HETATM   20  F   UNL     1      20.586  32.544  15.435  1.00  0.00    -0.165 F 
HETATM   21  F   UNL     1      21.131  34.410  14.693  1.00  0.00    -0.165 F 
HETATM   22  F   UNL     1      19.280  33.523  14.083  1.00  0.00    -0.165 F 
ENDBRANCH   2  19
TORSDOF 3
ENDMDL
MODEL 15
REMARK VINA RESULT:    -5.522      2.008      3.294
REMARK INTER + INTRA:          -6.832
REMARK INTER:                  -6.810
REMARK INTRA:                  -0.021
REMARK UNBOUND:                -0.341
REMARK  3 active torsions:
REMARK  status: ('A' for Active; 'I' for Inactive)
REMARK    1  A    between atoms: C_1  and  N_7 
REMARK    2  A    between atoms: N_7  and  C_12 
REMARK    3  A    between atoms: C_9  and  C_10 
ROOT
HETATM    1  C   UNL     1      20.729  31.540  10.032  1.00  0.00     0.104 A 
HETATM    2  C   UNL     1      21.617  33.656   9.447  1.00  0.00     0.121 A 
HETATM    3  C   UNL     1      21.398  32.320   9.090  1.00  0.00     0.082 A 
HETATM    4  C   UNL     1      20.594  33.347  11.404  1.00  0.00     0.182 A 
HETATM    5  N   UNL     1      20.310  32.062  11.194  1.00  0.00    -0.339 N 
ATOM      6  HN  UNL     1      19.802  31.504  11.880  1.00  0.00     0.168 HD
HETATM    7  N   UNL     1      21.250  34.201  10.612  1.00  0.00    -0.348 N 
ATOM      8  HN  UNL     1      21.449  35.168  10.869  1.00  0.00     0.166 HD
ENDROOT
BRANCH   1   9
HETATM    9  N   UNL     1      20.535  30.195   9.887  1.00  0.00    -0.371 N 
ATOM     10  HN  UNL     1      20.998  29.758   9.091  1.00  0.00     0.161 HD
BRANCH   9  11
HETATM   11  C   UNL     1      19.739  29.307  10.739  1.00  0.00     0.086 C 
HETATM   12  C   UNL     1      18.283  29.746  10.745  1.00  0.00     0.052 C 
HETATM   13  C   UNL     1      17.449  28.831  11.628  1.00  0.00     0.234 C 
HETATM   14  N   UNL     1      17.584  27.418  11.210  1.00  0.00    -0.075 N 
HETATM   15  C   UNL     1      18.994  26.974  11.213  1.00  0.00     0.234 C 
ATOM     16  HN2 UNL     1      17.001  26.805  11.781  1.00  0.00     0.277 HD
ATOM     17  HN1 UNL     1      17.146  27.256  10.303  1.00  0.00     0.277 HD
HETATM   18  C   UNL     1      19.843  27.857  10.308  1.00  0.00     0.052 C 
ENDBRANCH   9  11
ENDBRANCH   1   9
BRANCH   2  19
HETATM   19  C   UNL     1      22.261  34.623   8.488  1.00  0.00     0.432 C 
HETATM   20  F   UNL     1      23.510  34.883   8.803  1.00  0.00    -0.165 F 
HETATM   21  F   UNL     1      22.329  34.135   7.262  1.00  0.00    -0.165 F 
HETATM   22  F   UNL     1      21.625  35.780   8.438  1.00  0.00    -0.165 F 
ENDBRANCH   2  19
TORSDOF 3
ENDMDL
MODEL 16
REMARK VINA RESULT:    -5.487      2.591      4.238
REMARK INTER + INTRA:          -6.791
REMARK INTER:                  -6.476
REMARK INTRA:                  -0.315
REMARK UNBOUND:                -0.341
REMARK  3 active torsions:
REMARK  status: ('A' for Active; 'I' for Inactive)
REMARK    1  A    between atoms: C_1  and  N_7 
REMARK    2  A    between atoms: N_7  and  C_12 
REMARK    3  A    between atoms: C_9  and  C_10 
ROOT
HETATM    1  C   UNL     1      20.444  30.486  10.568  1.00  0.00     0.104 A 
HETATM    2  C   UNL     1      21.940  32.239  10.022  1.00  0.00     0.121 A 
HETATM    3  C   UNL     1      20.757  31.551   9.725  1.00  0.00     0.082 A 
HETATM    4  C   UNL     1      22.328  30.907  11.767  1.00  0.00     0.182 A 
HETATM    5  N   UNL     1      21.228  30.170  11.608  1.00  0.00    -0.339 N 
ATOM      6  HN  UNL     1      20.996  29.407  12.244  1.00  0.00     0.168 HD
HETATM    7  N   UNL     1      22.768  31.928  11.025  1.00  0.00    -0.348 N 
ATOM      8  HN  UNL     1      23.643  32.419  11.205  1.00  0.00     0.166 HD
ENDROOT
BRANCH   1   9
HETATM    9  N   UNL     1      19.387  29.647  10.352  1.00  0.00    -0.371 N 
ATOM     10  HN  UNL     1      19.013  29.630   9.404  1.00  0.00     0.161 HD
BRANCH   9  11
HETATM   11  C   UNL     1      18.727  28.767  11.322  1.00  0.00     0.086 C 
HETATM   12  C   UNL     1      17.225  29.008  11.315  1.00  0.00     0.052 C 
HETATM   13  C   UNL     1      16.532  28.100  12.320  1.00  0.00     0.234 C 
HETATM   14  N   UNL     1      16.850  26.678  12.063  1.00  0.00    -0.075 N 
HETATM   15  C   UNL     1      18.307  26.428  12.079  1.00  0.00     0.234 C 
ATOM     16  HN2 UNL     1      16.362  26.065  12.715  1.00  0.00     0.277 HD
ATOM     17  HN1 UNL     1      16.428  26.355  11.192  1.00  0.00     0.277 HD
HETATM   18  C   UNL     1      19.020  27.303  11.057  1.00  0.00     0.052 C 
ENDBRANCH   9  11
ENDBRANCH   1   9
BRANCH   2  19
HETATM   19  C   UNL     1      22.353  33.454   9.234  1.00  0.00     0.432 C 
HETATM   20  F   UNL     1      23.641  33.465   8.969  1.00  0.00    -0.165 F 
HETATM   21  F   UNL     1      21.776  33.495   8.045  1.00  0.00    -0.165 F 
HETATM   22  F   UNL     1      22.078  34.581   9.867  1.00  0.00    -0.165 F 
ENDBRANCH   2  19
TORSDOF 3
ENDMDL
MODEL 17
REMARK VINA RESULT:    -5.286      3.723      5.687
REMARK INTER + INTRA:          -6.554
REMARK INTER:                  -6.223
REMARK INTRA:                  -0.331
REMARK UNBOUND:                -0.341
REMARK  3 active torsions:
REMARK  status: ('A' for Active; 'I' for Inactive)
REMARK    1  A    between atoms: C_1  and  N_7 
REMARK    2  A    between atoms: N_7  and  C_12 
REMARK    3  A    between atoms: C_9  and  C_10 
ROOT
HETATM    1  C   UNL     1      18.768  29.650  10.531  1.00  0.00     0.104 A 
HETATM    2  C   UNL     1      20.835  30.805  10.578  1.00  0.00     0.121 A 
HETATM    3  C   UNL     1      19.480  30.780  10.931  1.00  0.00     0.082 A 
HETATM    4  C   UNL     1      20.661  28.812   9.595  1.00  0.00     0.182 A 
HETATM    5  N   UNL     1      19.367  28.650   9.870  1.00  0.00    -0.339 N 
ATOM      6  HN  UNL     1      18.860  27.810   9.592  1.00  0.00     0.168 HD
HETATM    7  N   UNL     1      21.457  29.846   9.885  1.00  0.00    -0.348 N 
ATOM      8  HN  UNL     1      22.437  29.898   9.606  1.00  0.00     0.166 HD
ENDROOT
BRANCH   1   9
HETATM    9  N   UNL     1      17.418  29.519  10.699  1.00  0.00    -0.371 N 
ATOM     10  HN  UNL     1      16.832  30.073  10.075  1.00  0.00     0.161 HD
BRANCH   9  11
HETATM   11  C   UNL     1      16.712  28.676  11.669  1.00  0.00     0.086 C 
HETATM   12  C   UNL     1      16.902  29.221  13.076  1.00  0.00     0.052 C 
HETATM   13  C   UNL     1      16.173  28.352  14.091  1.00  0.00     0.234 C 
HETATM   14  N   UNL     1      14.739  28.224  13.751  1.00  0.00    -0.075 N 
HETATM   15  C   UNL     1      14.541  27.683  12.390  1.00  0.00     0.234 C 
ATOM     16  HN2 UNL     1      14.242  27.667  14.447  1.00  0.00     0.277 HD
ATOM     17  HN1 UNL     1      14.248  29.109  13.874  1.00  0.00     0.277 HD
HETATM   18  C   UNL     1      15.234  28.556  11.353  1.00  0.00     0.052 C 
ENDBRANCH   9  11
ENDBRANCH   1   9
BRANCH   2  19
HETATM   19  C   UNL     1      21.732  31.934  11.015  1.00  0.00     0.432 C 
HETATM   20  F   UNL     1      22.601  31.558  11.927  1.00  0.00    -0.165 F 
HETATM   21  F   UNL     1      22.477  32.388  10.022  1.00  0.00    -0.165 F 
HETATM   22  F   UNL     1      21.053  32.948  11.521  1.00  0.00    -0.165 F 
ENDBRANCH   2  19
TORSDOF 3
ENDMDL
MODEL 18
REMARK VINA RESULT:    -5.272      2.662      4.301
REMARK INTER + INTRA:          -6.538
REMARK INTER:                  -6.321
REMARK INTRA:                  -0.217
REMARK UNBOUND:                -0.341
REMARK  3 active torsions:
REMARK  status: ('A' for Active; 'I' for Inactive)
REMARK    1  A    between atoms: C_1  and  N_7 
REMARK    2  A    between atoms: N_7  and  C_12 
REMARK    3  A    between atoms: C_9  and  C_10 
ROOT
HETATM    1  C   UNL     1      20.348  29.977  10.537  1.00  0.00     0.104 A 
HETATM    2  C   UNL     1      21.718  31.875  10.180  1.00  0.00     0.121 A 
HETATM    3  C   UNL     1      20.565  31.160   9.834  1.00  0.00     0.082 A 
HETATM    4  C   UNL     1      22.255  30.351  11.716  1.00  0.00     0.182 A 
HETATM    5  N   UNL     1      21.193  29.576  11.498  1.00  0.00    -0.339 N 
ATOM      6  HN  UNL     1      21.032  28.722  12.033  1.00  0.00     0.168 HD
HETATM    7  N   UNL     1      22.604  31.487  11.103  1.00  0.00    -0.348 N 
ATOM      8  HN  UNL     1      23.457  32.003  11.317  1.00  0.00     0.166 HD
ENDROOT
BRANCH   1   9
HETATM    9  N   UNL     1      19.333  29.109  10.247  1.00  0.00    -0.371 N 
ATOM     10  HN  UNL     1      19.399  28.625   9.352  1.00  0.00     0.161 HD
BRANCH   9  11
HETATM   11  C   UNL     1      18.161  28.792  11.069  1.00  0.00     0.086 C 
HETATM   12  C   UNL     1      18.227  27.350  11.547  1.00  0.00     0.052 C 
HETATM   13  C   UNL     1      17.014  27.011  12.400  1.00  0.00     0.234 C 
HETATM   14  N   UNL     1      16.881  27.950  13.536  1.00  0.00    -0.075 N 
HETATM   15  C   UNL     1      16.803  29.355  13.084  1.00  0.00     0.234 C 
ATOM     16  HN2 UNL     1      16.087  27.706  14.127  1.00  0.00     0.277 HD
ATOM     17  HN1 UNL     1      17.632  27.820  14.214  1.00  0.00     0.277 HD
HETATM   18  C   UNL     1      18.025  29.727  12.255  1.00  0.00     0.052 C 
ENDBRANCH   9  11
ENDBRANCH   1   9
BRANCH   2  19
HETATM   19  C   UNL     1      22.027  33.207   9.548  1.00  0.00     0.432 C 
HETATM   20  F   UNL     1      23.302  33.337   9.253  1.00  0.00    -0.165 F 
HETATM   21  F   UNL     1      21.408  33.364   8.391  1.00  0.00    -0.165 F 
HETATM   22  F   UNL     1      21.705  34.222  10.331  1.00  0.00    -0.165 F 
ENDBRANCH   2  19
TORSDOF 3
ENDMDL
MODEL 19
REMARK VINA RESULT:    -5.226      3.594      4.735
REMARK INTER + INTRA:          -6.484
REMARK INTER:                  -6.153
REMARK INTRA:                  -0.331
REMARK UNBOUND:                -0.341
REMARK  3 active torsions:
REMARK  status: ('A' for Active; 'I' for Inactive)
REMARK    1  A    between atoms: C_1  and  N_7 
REMARK    2  A    between atoms: N_7  and  C_12 
REMARK    3  A    between atoms: C_9  and  C_10 
ROOT
HETATM    1  C   UNL     1      20.351  32.456  11.638  1.00  0.00     0.104 A 
HETATM    2  C   UNL     1      21.839  32.840   9.836  1.00  0.00     0.121 A 
HETATM    3  C   UNL     1      20.992  33.378  10.813  1.00  0.00     0.082 A 
HETATM    4  C   UNL     1      21.388  30.768  10.525  1.00  0.00     0.182 A 
HETATM    5  N   UNL     1      20.562  31.139  11.502  1.00  0.00    -0.339 N 
ATOM      6  HN  UNL     1      20.113  30.458  12.115  1.00  0.00     0.168 HD
HETATM    7  N   UNL     1      22.043  31.532   9.645  1.00  0.00    -0.348 N 
ATOM      8  HN  UNL     1      22.637  31.157   8.906  1.00  0.00     0.166 HD
ENDROOT
BRANCH   1   9
HETATM    9  N   UNL     1      19.411  32.809  12.565  1.00  0.00    -0.371 N 
ATOM     10  HN  UNL     1      18.503  33.094  12.198  1.00  0.00     0.161 HD
BRANCH   9  11
HETATM   11  C   UNL     1      19.552  32.826  14.024  1.00  0.00     0.086 C 
HETATM   12  C   UNL     1      20.670  33.772  14.435  1.00  0.00     0.052 C 
HETATM   13  C   UNL     1      20.825  33.795  15.947  1.00  0.00     0.234 C 
HETATM   14  N   UNL     1      19.549  34.149  16.609  1.00  0.00    -0.075 N 
HETATM   15  C   UNL     1      18.457  33.228  16.228  1.00  0.00     0.234 C 
ATOM     16  HN2 UNL     1      19.658  34.196  17.622  1.00  0.00     0.277 HD
ATOM     17  HN1 UNL     1      19.295  35.120  16.430  1.00  0.00     0.277 HD
HETATM   18  C   UNL     1      18.261  33.213  14.719  1.00  0.00     0.052 C 
ENDBRANCH   9  11
ENDBRANCH   1   9
BRANCH   2  19
HETATM   19  C   UNL     1      22.649  33.731   8.931  1.00  0.00     0.432 C 
HETATM   20  F   UNL     1      22.153  33.792   7.715  1.00  0.00    -0.165 F 
HETATM   21  F   UNL     1      22.654  34.986   9.344  1.00  0.00    -0.165 F 
HETATM   22  F   UNL     1      23.902  33.326   8.818  1.00  0.00    -0.165 F 
ENDBRANCH   2  19
TORSDOF 3
ENDMDL
MODEL 20
REMARK VINA RESULT:    -5.206      4.049      5.260
REMARK INTER + INTRA:          -6.460
REMARK INTER:                  -6.132
REMARK INTRA:                  -0.328
REMARK UNBOUND:                -0.341
REMARK  3 active torsions:
REMARK  status: ('A' for Active; 'I' for Inactive)
REMARK    1  A    between atoms: C_1  and  N_7 
REMARK    2  A    between atoms: N_7  and  C_12 
REMARK    3  A    between atoms: C_9  and  C_10 
ROOT
HETATM    1  C   UNL     1      21.930  30.293  12.013  1.00  0.00     0.104 A 
HETATM    2  C   UNL     1      21.639  31.860  10.261  1.00  0.00     0.121 A 
HETATM    3  C   UNL     1      22.136  31.588  11.542  1.00  0.00     0.082 A 
HETATM    4  C   UNL     1      20.883  29.772  10.065  1.00  0.00     0.182 A 
HETATM    5  N   UNL     1      21.310  29.371  11.262  1.00  0.00    -0.339 N 
ATOM      6  HN  UNL     1      21.174  28.415  11.589  1.00  0.00     0.168 HD
HETATM    7  N   UNL     1      20.981  30.979   9.499  1.00  0.00    -0.348 N 
ATOM      8  HN  UNL     1      20.596  31.205   8.583  1.00  0.00     0.166 HD
ENDROOT
BRANCH   1   9
HETATM    9  N   UNL     1      22.253  29.897  13.281  1.00  0.00    -0.371 N 
ATOM     10  HN  UNL     1      21.643  30.232  14.025  1.00  0.00     0.161 HD
BRANCH   9  11
HETATM   11  C   UNL     1      23.374  29.049  13.697  1.00  0.00     0.086 C 
HETATM   12  C   UNL     1      24.188  29.744  14.778  1.00  0.00     0.052 C 
HETATM   13  C   UNL     1      25.355  28.872  15.216  1.00  0.00     0.234 C 
HETATM   14  N   UNL     1      24.888  27.542  15.665  1.00  0.00    -0.075 N 
HETATM   15  C   UNL     1      24.106  26.850  14.618  1.00  0.00     0.234 C 
ATOM     16  HN2 UNL     1      25.665  26.966  15.989  1.00  0.00     0.277 HD
ATOM     17  HN1 UNL     1      24.363  27.608  16.537  1.00  0.00     0.277 HD
HETATM   18  C   UNL     1      22.912  27.691  14.187  1.00  0.00     0.052 C 
ENDBRANCH   9  11
ENDBRANCH   1   9
BRANCH   2  19
HETATM   19  C   UNL     1      21.862  33.198   9.607  1.00  0.00     0.432 C 
HETATM   20  F   UNL     1      23.130  33.418   9.337  1.00  0.00    -0.165 F 
HETATM   21  F   UNL     1      21.260  33.284   8.434  1.00  0.00    -0.165 F 
HETATM   22  F   UNL     1      21.447  34.201  10.361  1.00  0.00    -0.165 F 
ENDBRANCH   2  19
TORSDOF 3
ENDMDL
