MODEL 1
REMARK VINA RESULT:    -6.524      0.000      0.000
REMARK INTER + INTRA:          -7.329
REMARK INTER:                  -7.287
REMARK INTRA:                  -0.042
REMARK UNBOUND:                -0.042
REMARK  2 active torsions:
REMARK  status: ('A' for Active; 'I' for Inactive)
REMARK    1  A    between atoms: P_1  and  C_5 
REMARK    2  A    between atoms: C_5  and  C_6 
ROOT
HETATM    1  P   UNK A   0      19.500  28.776 -35.833  1.00  0.00     0.266 P 
HETATM    2  O   UNK A   0      19.278  29.168 -37.278  1.00  0.00    -0.639 OA
HETATM    3  O   UNK A   0      19.424  29.938 -34.874  1.00  0.00    -0.639 OA
HETATM    4  O   UNK A   0      18.600  27.634 -35.412  1.00  0.00    -0.639 OA
ENDROOT
BRANCH   1   5
HETATM    5  C   UNK A   0      21.202  28.094 -35.724  1.00  0.00     0.214 C 
BRANCH   5   6
HETATM    6  C   UNK A   0      21.600  28.035 -34.274  1.00  0.00     0.244 C 
HETATM    7  O   UNK A   0      21.182  27.201 -33.534  1.00  0.00    -0.306 OA
ENDBRANCH   5   6
ENDBRANCH   1   5
TORSDOF 2
ENDMDL
MODEL 2
REMARK VINA RESULT:    -5.901      1.713      2.265
REMARK INTER + INTRA:          -6.633
REMARK INTER:                  -6.595
REMARK INTRA:                  -0.038
REMARK UNBOUND:                -0.042
REMARK  2 active torsions:
REMARK  status: ('A' for Active; 'I' for Inactive)
REMARK    1  A    between atoms: P_1  and  C_5 
REMARK    2  A    between atoms: C_5  and  C_6 
ROOT
HETATM    1  P   UNK A   0      19.819  28.500 -35.930  1.00  0.00     0.266 P 
HETATM    2  O   UNK A   0      18.736  27.671 -35.274  1.00  0.00    -0.639 OA
HETATM    3  O   UNK A   0      21.096  27.735 -36.179  1.00  0.00    -0.639 OA
HETATM    4  O   UNK A   0      19.321  29.193 -37.180  1.00  0.00    -0.639 OA
ENDROOT
BRANCH   1   5
HETATM    5  C   UNK A   0      20.222  29.864 -34.768  1.00  0.00     0.214 C 
BRANCH   5   6
HETATM    6  C   UNK A   0      20.900  29.276 -33.560  1.00  0.00     0.244 C 
HETATM    7  O   UNK A   0      20.410  29.315 -32.475  1.00  0.00    -0.306 OA
ENDBRANCH   5   6
ENDBRANCH   1   5
TORSDOF 2
ENDMDL
MODEL 3
REMARK VINA RESULT:    -5.881      1.707      1.935
REMARK INTER + INTRA:          -6.611
REMARK INTER:                  -6.570
REMARK INTRA:                  -0.041
REMARK UNBOUND:                -0.042
REMARK  2 active torsions:
REMARK  status: ('A' for Active; 'I' for Inactive)
REMARK    1  A    between atoms: P_1  and  C_5 
REMARK    2  A    between atoms: C_5  and  C_6 
ROOT
HETATM    1  P   UNK A   0      19.842  28.531 -35.935  1.00  0.00     0.266 P 
HETATM    2  O   UNK A   0      21.110  27.740 -36.172  1.00  0.00    -0.639 OA
HETATM    3  O   UNK A   0      19.311  29.206 -37.175  1.00  0.00    -0.639 OA
HETATM    4  O   UNK A   0      18.781  27.703 -35.242  1.00  0.00    -0.639 OA
ENDROOT
BRANCH   1   5
HETATM    5  C   UNK A   0      20.260  29.855 -34.732  1.00  0.00     0.214 C 
BRANCH   5   6
HETATM    6  C   UNK A   0      20.894  29.219 -33.524  1.00  0.00     0.244 C 
HETATM    7  O   UNK A   0      20.390  29.263 -32.446  1.00  0.00    -0.306 OA
ENDBRANCH   5   6
ENDBRANCH   1   5
TORSDOF 2
ENDMDL
MODEL 4
REMARK VINA RESULT:    -5.056      1.937      3.291
REMARK INTER + INTRA:          -5.689
REMARK INTER:                  -5.648
REMARK INTRA:                  -0.041
REMARK UNBOUND:                -0.042
REMARK  2 active torsions:
REMARK  status: ('A' for Active; 'I' for Inactive)
REMARK    1  A    between atoms: P_1  and  C_5 
REMARK    2  A    between atoms: C_5  and  C_6 
ROOT
HETATM    1  P   UNK A   0      21.047  28.767 -33.415  1.00  0.00     0.266 P 
HETATM    2  O   UNK A   0      20.225  29.351 -32.285  1.00  0.00    -0.639 OA
HETATM    3  O   UNK A   0      22.484  29.225 -33.414  1.00  0.00    -0.639 OA
HETATM    4  O   UNK A   0      20.932  27.259 -33.475  1.00  0.00    -0.639 OA
ENDROOT
BRANCH   1   5
HETATM    5  C   UNK A   0      20.290  29.357 -34.981  1.00  0.00     0.214 C 
BRANCH   5   6
HETATM    6  C   UNK A   0      19.924  28.158 -35.814  1.00  0.00     0.244 C 
HETATM    7  O   UNK A   0      18.792  27.840 -36.006  1.00  0.00    -0.306 OA
ENDBRANCH   5   6
ENDBRANCH   1   5
TORSDOF 2
ENDMDL
MODEL 5
REMARK VINA RESULT:    -5.055      3.240      4.194
REMARK INTER + INTRA:          -5.688
REMARK INTER:                  -5.661
REMARK INTRA:                  -0.027
REMARK UNBOUND:                -0.042
REMARK  2 active torsions:
REMARK  status: ('A' for Active; 'I' for Inactive)
REMARK    1  A    between atoms: P_1  and  C_5 
REMARK    2  A    between atoms: C_5  and  C_6 
ROOT
HETATM    1  P   UNK A   0      21.507  30.069 -31.565  1.00  0.00     0.266 P 
HETATM    2  O   UNK A   0      21.715  31.483 -32.065  1.00  0.00    -0.639 OA
HETATM    3  O   UNK A   0      22.001  29.848 -30.157  1.00  0.00    -0.639 OA
HETATM    4  O   UNK A   0      20.074  29.613 -31.740  1.00  0.00    -0.639 OA
ENDROOT
BRANCH   1   5
HETATM    5  C   UNK A   0      22.485  28.968 -32.663  1.00  0.00     0.214 C 
BRANCH   5   6
HETATM    6  C   UNK A   0      21.551  28.341 -33.663  1.00  0.00     0.244 C 
HETATM    7  O   UNK A   0      21.247  27.190 -33.613  1.00  0.00    -0.306 OA
ENDBRANCH   5   6
ENDBRANCH   1   5
TORSDOF 2
ENDMDL
MODEL 6
REMARK VINA RESULT:    -5.053      2.013      3.376
REMARK INTER + INTRA:          -5.686
REMARK INTER:                  -5.692
REMARK INTRA:                   0.006
REMARK UNBOUND:                -0.042
REMARK  2 active torsions:
REMARK  status: ('A' for Active; 'I' for Inactive)
REMARK    1  A    between atoms: P_1  and  C_5 
REMARK    2  A    between atoms: C_5  and  C_6 
ROOT
HETATM    1  P   UNK A   0      21.063  28.837 -33.314  1.00  0.00     0.266 P 
HETATM    2  O   UNK A   0      21.140  27.329 -33.424  1.00  0.00    -0.639 OA
HETATM    3  O   UNK A   0      20.195  29.316 -32.177  1.00  0.00    -0.639 OA
HETATM    4  O   UNK A   0      22.437  29.472 -33.285  1.00  0.00    -0.639 OA
ENDROOT
BRANCH   1   5
HETATM    5  C   UNK A   0      20.301  29.443 -34.872  1.00  0.00     0.214 C 
BRANCH   5   6
HETATM    6  C   UNK A   0      19.772  28.260 -35.636  1.00  0.00     0.244 C 
HETATM    7  O   UNK A   0      18.718  27.763 -35.388  1.00  0.00    -0.306 OA
ENDBRANCH   5   6
ENDBRANCH   1   5
TORSDOF 2
ENDMDL
MODEL 7
REMARK VINA RESULT:    -5.012      3.227      4.476
REMARK INTER + INTRA:          -5.640
REMARK INTER:                  -5.609
REMARK INTRA:                  -0.031
REMARK UNBOUND:                -0.042
REMARK  2 active torsions:
REMARK  status: ('A' for Active; 'I' for Inactive)
REMARK    1  A    between atoms: P_1  and  C_5 
REMARK    2  A    between atoms: C_5  and  C_6 
ROOT
HETATM    1  P   UNK A   0      21.454  29.991 -31.539  1.00  0.00     0.266 P 
HETATM    2  O   UNK A   0      22.014  29.734 -30.156  1.00  0.00    -0.639 OA
HETATM    3  O   UNK A   0      20.006  29.598 -31.687  1.00  0.00    -0.639 OA
HETATM    4  O   UNK A   0      21.705  31.413 -31.995  1.00  0.00    -0.639 OA
ENDROOT
BRANCH   1   5
HETATM    5  C   UNK A   0      22.421  28.950 -32.704  1.00  0.00     0.214 C 
BRANCH   5   6
HETATM    6  C   UNK A   0      21.469  28.333 -33.694  1.00  0.00     0.244 C 
HETATM    7  O   UNK A   0      21.146  27.188 -33.635  1.00  0.00    -0.306 OA
ENDBRANCH   5   6
ENDBRANCH   1   5
TORSDOF 2
ENDMDL
MODEL 8
REMARK VINA RESULT:    -4.977      3.353      4.451
REMARK INTER + INTRA:          -5.601
REMARK INTER:                  -5.554
REMARK INTRA:                  -0.047
REMARK UNBOUND:                -0.042
REMARK  2 active torsions:
REMARK  status: ('A' for Active; 'I' for Inactive)
REMARK    1  A    between atoms: P_1  and  C_5 
REMARK    2  A    between atoms: C_5  and  C_6 
ROOT
HETATM    1  P   UNK A   0      21.154  29.312 -32.745  1.00  0.00     0.266 P 
HETATM    2  O   UNK A   0      20.223  29.533 -31.571  1.00  0.00    -0.639 OA
HETATM    3  O   UNK A   0      21.395  27.856 -33.057  1.00  0.00    -0.639 OA
HETATM    4  O   UNK A   0      20.715  30.089 -33.968  1.00  0.00    -0.639 OA
ENDROOT
BRANCH   1   5
HETATM    5  C   UNK A   0      22.774  30.044 -32.282  1.00  0.00     0.214 C 
BRANCH   5   6
HETATM    6  C   UNK A   0      22.531  31.411 -31.702  1.00  0.00     0.244 C 
HETATM    7  O   UNK A   0      22.831  32.409 -32.279  1.00  0.00    -0.306 OA
ENDBRANCH   5   6
ENDBRANCH   1   5
TORSDOF 2
ENDMDL
MODEL 9
REMARK VINA RESULT:    -4.928      3.305      4.204
REMARK INTER + INTRA:          -5.546
REMARK INTER:                  -5.493
REMARK INTRA:                  -0.053
REMARK UNBOUND:                -0.042
REMARK  2 active torsions:
REMARK  status: ('A' for Active; 'I' for Inactive)
REMARK    1  A    between atoms: P_1  and  C_5 
REMARK    2  A    between atoms: C_5  and  C_6 
ROOT
HETATM    1  P   UNK A   0      21.159  29.267 -32.870  1.00  0.00     0.266 P 
HETATM    2  O   UNK A   0      21.366  27.797 -33.167  1.00  0.00    -0.639 OA
HETATM    3  O   UNK A   0      20.743  30.073 -34.075  1.00  0.00    -0.639 OA
HETATM    4  O   UNK A   0      20.227  29.481 -31.696  1.00  0.00    -0.639 OA
ENDROOT
BRANCH   1   5
HETATM    5  C   UNK A   0      22.777  29.928 -32.306  1.00  0.00     0.214 C 
BRANCH   5   6
HETATM    6  C   UNK A   0      22.529  31.174 -31.500  1.00  0.00     0.244 C 
HETATM    7  O   UNK A   0      22.738  32.264 -31.933  1.00  0.00    -0.306 OA
ENDBRANCH   5   6
ENDBRANCH   1   5
TORSDOF 2
ENDMDL
MODEL 10
REMARK VINA RESULT:    -4.913      3.278      4.021
REMARK INTER + INTRA:          -5.530
REMARK INTER:                  -5.462
REMARK INTRA:                  -0.068
REMARK UNBOUND:                -0.042
REMARK  2 active torsions:
REMARK  status: ('A' for Active; 'I' for Inactive)
REMARK    1  A    between atoms: P_1  and  C_5 
REMARK    2  A    between atoms: C_5  and  C_6 
ROOT
HETATM    1  P   UNK A   0      21.146  29.289 -32.861  1.00  0.00     0.266 P 
HETATM    2  O   UNK A   0      20.778  30.097 -34.088  1.00  0.00    -0.639 OA
HETATM    3  O   UNK A   0      20.213  29.504 -31.695  1.00  0.00    -0.639 OA
HETATM    4  O   UNK A   0      21.320  27.820 -33.184  1.00  0.00    -0.639 OA
ENDROOT
BRANCH   1   5
HETATM    5  C   UNK A   0      22.813  29.852 -32.335  1.00  0.00     0.214 C 
BRANCH   5   6
HETATM    6  C   UNK A   0      22.651  31.060 -31.452  1.00  0.00     0.244 C 
HETATM    7  O   UNK A   0      22.614  32.167 -31.890  1.00  0.00    -0.306 OA
ENDBRANCH   5   6
ENDBRANCH   1   5
TORSDOF 2
ENDMDL
MODEL 11
REMARK VINA RESULT:    -4.857      4.696      5.723
REMARK INTER + INTRA:          -5.467
REMARK INTER:                  -5.433
REMARK INTRA:                  -0.034
REMARK UNBOUND:                -0.042
REMARK  2 active torsions:
REMARK  status: ('A' for Active; 'I' for Inactive)
REMARK    1  A    between atoms: P_1  and  C_5 
REMARK    2  A    between atoms: C_5  and  C_6 
ROOT
HETATM    1  P   UNK A   0      23.373  31.274 -31.730  1.00  0.00     0.266 P 
HETATM    2  O   UNK A   0      24.381  31.403 -30.608  1.00  0.00    -0.639 OA
HETATM    3  O   UNK A   0      23.188  32.544 -32.524  1.00  0.00    -0.639 OA
HETATM    4  O   UNK A   0      23.668  30.087 -32.621  1.00  0.00    -0.639 OA
ENDROOT
BRANCH   1   5
HETATM    5  C   UNK A   0      21.757  30.882 -30.949  1.00  0.00     0.214 C 
BRANCH   5   6
HETATM    6  C   UNK A   0      21.270  29.567 -31.497  1.00  0.00     0.244 C 
HETATM    7  O   UNK A   0      20.157  29.418 -31.894  1.00  0.00    -0.306 OA
ENDBRANCH   5   6
ENDBRANCH   1   5
TORSDOF 2
ENDMDL
MODEL 12
REMARK VINA RESULT:    -4.854      1.642      3.434
REMARK INTER + INTRA:          -5.464
REMARK INTER:                  -5.440
REMARK INTRA:                  -0.024
REMARK UNBOUND:                -0.042
REMARK  2 active torsions:
REMARK  status: ('A' for Active; 'I' for Inactive)
REMARK    1  A    between atoms: P_1  and  C_5 
REMARK    2  A    between atoms: C_5  and  C_6 
ROOT
HETATM    1  P   UNK A   0      21.266  28.333 -33.984  1.00  0.00     0.266 P 
HETATM    2  O   UNK A   0      22.670  28.817 -33.689  1.00  0.00    -0.639 OA
HETATM    3  O   UNK A   0      21.024  26.901 -33.578  1.00  0.00    -0.639 OA
HETATM    4  O   UNK A   0      20.217  29.267 -33.420  1.00  0.00    -0.639 OA
ENDROOT
BRANCH   1   5
HETATM    5  C   UNK A   0      21.044  28.427 -35.804  1.00  0.00     0.214 C 
BRANCH   5   6
HETATM    6  C   UNK A   0      19.595  28.711 -36.094  1.00  0.00     0.244 C 
HETATM    7  O   UNK A   0      19.240  29.240 -37.101  1.00  0.00    -0.306 OA
ENDBRANCH   5   6
ENDBRANCH   1   5
TORSDOF 2
ENDMDL
MODEL 13
REMARK VINA RESULT:    -4.784      4.457      5.602
REMARK INTER + INTRA:          -5.386
REMARK INTER:                  -5.357
REMARK INTRA:                  -0.029
REMARK UNBOUND:                -0.042
REMARK  2 active torsions:
REMARK  status: ('A' for Active; 'I' for Inactive)
REMARK    1  A    between atoms: P_1  and  C_5 
REMARK    2  A    between atoms: C_5  and  C_6 
ROOT
HETATM    1  P   UNK A   0      21.366  30.392 -31.182  1.00  0.00     0.266 P 
HETATM    2  O   UNK A   0      22.052  29.848 -29.947  1.00  0.00    -0.639 OA
HETATM    3  O   UNK A   0      20.291  29.483 -31.725  1.00  0.00    -0.639 OA
HETATM    4  O   UNK A   0      20.861  31.804 -30.971  1.00  0.00    -0.639 OA
ENDROOT
BRANCH   1   5
HETATM    5  C   UNK A   0      22.655  30.546 -32.481  1.00  0.00     0.214 C 
BRANCH   5   6
HETATM    6  C   UNK A   0      23.496  31.757 -32.177  1.00  0.00     0.244 C 
HETATM    7  O   UNK A   0      23.410  32.765 -32.807  1.00  0.00    -0.306 OA
ENDBRANCH   5   6
ENDBRANCH   1   5
TORSDOF 2
ENDMDL
MODEL 14
REMARK VINA RESULT:    -4.776      4.537      5.548
REMARK INTER + INTRA:          -5.376
REMARK INTER:                  -5.335
REMARK INTRA:                  -0.041
REMARK UNBOUND:                -0.042
REMARK  2 active torsions:
REMARK  status: ('A' for Active; 'I' for Inactive)
REMARK    1  A    between atoms: P_1  and  C_5 
REMARK    2  A    between atoms: C_5  and  C_6 
ROOT
HETATM    1  P   UNK A   0      21.493  30.353 -31.012  1.00  0.00     0.266 P 
HETATM    2  O   UNK A   0      20.602  29.161 -31.288  1.00  0.00    -0.639 OA
HETATM    3  O   UNK A   0      20.749  31.664 -30.965  1.00  0.00    -0.639 OA
HETATM    4  O   UNK A   0      22.352  30.145 -29.783  1.00  0.00    -0.639 OA
ENDROOT
BRANCH   1   5
HETATM    5  C   UNK A   0      22.688  30.456 -32.404  1.00  0.00     0.214 C 
BRANCH   5   6
HETATM    6  C   UNK A   0      23.589  31.638 -32.171  1.00  0.00     0.244 C 
HETATM    7  O   UNK A   0      23.391  32.698 -32.677  1.00  0.00    -0.306 OA
ENDBRANCH   5   6
ENDBRANCH   1   5
TORSDOF 2
ENDMDL
MODEL 15
REMARK VINA RESULT:    -4.750      4.556      5.478
REMARK INTER + INTRA:          -5.347
REMARK INTER:                  -5.386
REMARK INTRA:                   0.039
REMARK UNBOUND:                -0.042
REMARK  2 active torsions:
REMARK  status: ('A' for Active; 'I' for Inactive)
REMARK    1  A    between atoms: P_1  and  C_5 
REMARK    2  A    between atoms: C_5  and  C_6 
ROOT
HETATM    1  P   UNK A   0      21.518  30.366 -30.976  1.00  0.00     0.266 P 
HETATM    2  O   UNK A   0      20.810  31.702 -31.049  1.00  0.00    -0.639 OA
HETATM    3  O   UNK A   0      22.299  30.167 -29.701  1.00  0.00    -0.639 OA
HETATM    4  O   UNK A   0      20.577  29.213 -31.250  1.00  0.00    -0.639 OA
ENDROOT
BRANCH   1   5
HETATM    5  C   UNK A   0      22.722  30.326 -32.362  1.00  0.00     0.214 C 
BRANCH   5   6
HETATM    6  C   UNK A   0      23.627  31.523 -32.242  1.00  0.00     0.244 C 
HETATM    7  O   UNK A   0      23.310  32.601 -32.637  1.00  0.00    -0.306 OA
ENDBRANCH   5   6
ENDBRANCH   1   5
TORSDOF 2
ENDMDL
MODEL 16
REMARK VINA RESULT:    -4.512      2.172      2.624
REMARK INTER + INTRA:          -5.082
REMARK INTER:                  -5.087
REMARK INTRA:                   0.005
REMARK UNBOUND:                -0.042
REMARK  2 active torsions:
REMARK  status: ('A' for Active; 'I' for Inactive)
REMARK    1  A    between atoms: P_1  and  C_5 
REMARK    2  A    between atoms: C_5  and  C_6 
ROOT
HETATM    1  P   UNK A   0      20.868  28.533 -34.390  1.00  0.00     0.266 P 
HETATM    2  O   UNK A   0      21.640  28.506 -35.692  1.00  0.00    -0.639 OA
HETATM    3  O   UNK A   0      19.485  29.122 -34.522  1.00  0.00    -0.639 OA
HETATM    4  O   UNK A   0      20.844  27.177 -33.719  1.00  0.00    -0.639 OA
ENDROOT
BRANCH   1   5
HETATM    5  C   UNK A   0      21.809  29.609 -33.237  1.00  0.00     0.214 C 
BRANCH   5   6
HETATM    6  C   UNK A   0      21.357  29.312 -31.832  1.00  0.00     0.244 C 
HETATM    7  O   UNK A   0      20.229  29.469 -31.481  1.00  0.00    -0.306 OA
ENDBRANCH   5   6
ENDBRANCH   1   5
TORSDOF 2
ENDMDL
MODEL 17
REMARK VINA RESULT:    -4.471      4.221      5.155
REMARK INTER + INTRA:          -5.036
REMARK INTER:                  -5.023
REMARK INTRA:                  -0.013
REMARK UNBOUND:                -0.042
REMARK  2 active torsions:
REMARK  status: ('A' for Active; 'I' for Inactive)
REMARK    1  A    between atoms: P_1  and  C_5 
REMARK    2  A    between atoms: C_5  and  C_6 
ROOT
HETATM    1  P   UNK A   0      21.679  29.621 -31.714  1.00  0.00     0.266 P 
HETATM    2  O   UNK A   0      20.193  29.522 -31.984  1.00  0.00    -0.639 OA
HETATM    3  O   UNK A   0      22.038  29.479 -30.255  1.00  0.00    -0.639 OA
HETATM    4  O   UNK A   0      22.476  28.677 -32.588  1.00  0.00    -0.639 OA
ENDROOT
BRANCH   1   5
HETATM    5  C   UNK A   0      22.204  31.300 -32.241  1.00  0.00     0.214 C 
BRANCH   5   6
HETATM    6  C   UNK A   0      23.677  31.446 -31.972  1.00  0.00     0.244 C 
HETATM    7  O   UNK A   0      24.323  32.335 -32.432  1.00  0.00    -0.306 OA
ENDBRANCH   5   6
ENDBRANCH   1   5
TORSDOF 2
ENDMDL
MODEL 18
REMARK VINA RESULT:    -4.228      4.881      5.800
REMARK INTER + INTRA:          -4.765
REMARK INTER:                  -4.747
REMARK INTRA:                  -0.018
REMARK UNBOUND:                -0.042
REMARK  2 active torsions:
REMARK  status: ('A' for Active; 'I' for Inactive)
REMARK    1  A    between atoms: P_1  and  C_5 
REMARK    2  A    between atoms: C_5  and  C_6 
ROOT
HETATM    1  P   UNK A   0      21.936  30.658 -31.782  1.00  0.00     0.266 P 
HETATM    2  O   UNK A   0      20.823  30.575 -30.759  1.00  0.00    -0.639 OA
HETATM    3  O   UNK A   0      22.140  29.380 -32.557  1.00  0.00    -0.639 OA
HETATM    4  O   UNK A   0      21.776  31.855 -32.695  1.00  0.00    -0.639 OA
ENDROOT
BRANCH   1   5
HETATM    5  C   UNK A   0      23.488  30.983 -30.854  1.00  0.00     0.214 C 
BRANCH   5   6
HETATM    6  C   UNK A   0      23.241  30.692 -29.398  1.00  0.00     0.244 C 
HETATM    7  O   UNK A   0      24.131  30.497 -28.630  1.00  0.00    -0.306 OA
ENDBRANCH   5   6
ENDBRANCH   1   5
TORSDOF 2
ENDMDL
MODEL 19
REMARK VINA RESULT:    -4.134      3.218      4.206
REMARK INTER + INTRA:          -4.660
REMARK INTER:                  -4.644
REMARK INTRA:                  -0.016
REMARK UNBOUND:                -0.042
REMARK  2 active torsions:
REMARK  status: ('A' for Active; 'I' for Inactive)
REMARK    1  A    between atoms: P_1  and  C_5 
REMARK    2  A    between atoms: C_5  and  C_6 
ROOT
HETATM    1  P   UNK A   0      21.512  28.776 -33.172  1.00  0.00     0.266 P 
HETATM    2  O   UNK A   0      20.893  29.931 -33.931  1.00  0.00    -0.639 OA
HETATM    3  O   UNK A   0      20.943  27.431 -33.552  1.00  0.00    -0.639 OA
HETATM    4  O   UNK A   0      23.024  28.794 -33.251  1.00  0.00    -0.639 OA
ENDROOT
BRANCH   1   5
HETATM    5  C   UNK A   0      21.133  29.044 -31.395  1.00  0.00     0.214 C 
BRANCH   5   6
HETATM    6  C   UNK A   0      21.337  30.502 -31.080  1.00  0.00     0.244 C 
HETATM    7  O   UNK A   0      20.915  31.001 -30.084  1.00  0.00    -0.306 OA
ENDBRANCH   5   6
ENDBRANCH   1   5
TORSDOF 2
ENDMDL
MODEL 20
REMARK VINA RESULT:    -4.097      4.291      5.125
REMARK INTER + INTRA:          -4.618
REMARK INTER:                  -4.566
REMARK INTRA:                  -0.052
REMARK UNBOUND:                -0.042
REMARK  2 active torsions:
REMARK  status: ('A' for Active; 'I' for Inactive)
REMARK    1  A    between atoms: P_1  and  C_5 
REMARK    2  A    between atoms: C_5  and  C_6 
ROOT
HETATM    1  P   UNK A   0      21.501  30.828 -30.900  1.00  0.00     0.266 P 
HETATM    2  O   UNK A   0      20.236  31.514 -30.430  1.00  0.00    -0.639 OA
HETATM    3  O   UNK A   0      22.315  31.657 -31.862  1.00  0.00    -0.639 OA
HETATM    4  O   UNK A   0      22.335  30.324 -29.741  1.00  0.00    -0.639 OA
ENDROOT
BRANCH   1   5
HETATM    5  C   UNK A   0      20.981  29.311 -31.795  1.00  0.00     0.214 C 
BRANCH   5   6
HETATM    6  C   UNK A   0      22.024  28.988 -32.831  1.00  0.00     0.244 C 
HETATM    7  O   UNK A   0      22.795  28.090 -32.698  1.00  0.00    -0.306 OA
ENDBRANCH   5   6
ENDBRANCH   1   5
TORSDOF 2
ENDMDL
