MODEL 1
REMARK VINA RESULT:    -4.264      0.000      0.000
REMARK INTER + INTRA:          -4.389
REMARK INTER:                  -4.389
REMARK INTRA:                   0.000
REMARK UNBOUND:                 0.000
REMARK  1 active torsions:
REMARK  status: ('A' for Active; 'I' for Inactive)
REMARK    1  A    between atoms: N_2  and  C_5 
ROOT
HETATM    1  C   UNL     1       6.104 105.575  21.446  1.00  0.00     0.086 A 
HETATM    2  C   UNL     1       5.461 106.420  20.505  1.00  0.00     0.055 A 
HETATM    3  C   UNL     1       6.195 107.478  19.983  1.00  0.00     0.031 A 
HETATM    4  C   UNL     1       7.529 107.692  20.380  1.00  0.00     0.005 A 
HETATM    5  C   UNL     1       8.169 106.870  21.287  1.00  0.00     0.032 A 
HETATM    6  C   UNL     1       7.436 105.812  21.801  1.00  0.00     0.062 A 
HETATM    7  N   UNL     1       7.761 104.823  22.700  1.00  0.00    -0.350 N 
ATOM      8  HN  UNL     1       8.662 104.694  23.162  1.00  0.00     0.166 HD
HETATM    9  C   UNL     1       6.669 104.060  22.852  1.00  0.00     0.181 A 
HETATM   10  N   UNL     1       5.646 104.451  22.125  1.00  0.00    -0.349 N 
ATOM     11  HN  UNL     1       4.722 104.023  22.070  1.00  0.00     0.167 HD
ENDROOT
BRANCH   2  12
HETATM   12  N   UNL     1       4.166 106.225  20.110  1.00  0.00    -0.397 N 
ATOM     13  HN2 UNL     1       3.923 105.415  19.540  1.00  0.00     0.156 HD
ATOM     14  HN1 UNL     1       3.415 106.868  20.363  1.00  0.00     0.156 HD
ENDBRANCH   2  12
TORSDOF 1
ENDMDL
MODEL 2
REMARK VINA RESULT:    -4.187     16.634     17.916
REMARK INTER + INTRA:          -4.309
REMARK INTER:                  -4.309
REMARK INTRA:                   0.000
REMARK UNBOUND:                 0.000
REMARK  1 active torsions:
REMARK  status: ('A' for Active; 'I' for Inactive)
REMARK    1  A    between atoms: N_2  and  C_5 
ROOT
HETATM    1  C   UNL     1      -3.229  97.755   8.303  1.00  0.00     0.086 A 
HETATM    2  C   UNL     1      -3.460  97.997   9.683  1.00  0.00     0.055 A 
HETATM    3  C   UNL     1      -2.418  98.543  10.423  1.00  0.00     0.031 A 
HETATM    4  C   UNL     1      -1.185  98.845   9.814  1.00  0.00     0.005 A 
HETATM    5  C   UNL     1      -0.953  98.624   8.471  1.00  0.00     0.032 A 
HETATM    6  C   UNL     1      -1.994  98.084   7.734  1.00  0.00     0.062 A 
HETATM    7  N   UNL     1      -2.100  97.750   6.404  1.00  0.00    -0.350 N 
ATOM      8  HN  UNL     1      -1.379  97.861   5.691  1.00  0.00     0.166 HD
HETATM    9  C   UNL     1      -3.332  97.253   6.223  1.00  0.00     0.181 A 
HETATM   10  N   UNL     1      -4.060  97.236   7.317  1.00  0.00    -0.349 N 
ATOM     11  HN  UNL     1      -5.022  96.914   7.420  1.00  0.00     0.167 HD
ENDROOT
BRANCH   2  12
HETATM   12  N   UNL     1      -4.651  97.708  10.288  1.00  0.00    -0.397 N 
ATOM     13  HN2 UNL     1      -4.806  96.786  10.696  1.00  0.00     0.156 HD
ATOM     14  HN1 UNL     1      -5.412  98.386  10.350  1.00  0.00     0.156 HD
ENDBRANCH   2  12
TORSDOF 1
ENDMDL
MODEL 3
REMARK VINA RESULT:    -4.184     16.219     17.414
REMARK INTER + INTRA:          -4.306
REMARK INTER:                  -4.306
REMARK INTRA:                   0.000
REMARK UNBOUND:                 0.000
REMARK  1 active torsions:
REMARK  status: ('A' for Active; 'I' for Inactive)
REMARK    1  A    between atoms: N_2  and  C_5 
ROOT
HETATM    1  C   UNL     1      -3.493  97.901   9.018  1.00  0.00     0.086 A 
HETATM    2  C   UNL     1      -2.873  97.867   7.742  1.00  0.00     0.055 A 
HETATM    3  C   UNL     1      -1.558  98.309   7.654  1.00  0.00     0.031 A 
HETATM    4  C   UNL     1      -0.876  98.768   8.798  1.00  0.00     0.005 A 
HETATM    5  C   UNL     1      -1.467  98.795  10.046  1.00  0.00     0.032 A 
HETATM    6  C   UNL     1      -2.775  98.349  10.132  1.00  0.00     0.062 A 
HETATM    7  N   UNL     1      -3.639  98.240  11.196  1.00  0.00    -0.350 N 
ATOM      8  HN  UNL     1      -3.440  98.480  12.168  1.00  0.00     0.166 HD
HETATM    9  C   UNL     1      -4.794  97.757  10.714  1.00  0.00     0.181 A 
HETATM   10  N   UNL     1      -4.770  97.525   9.421  1.00  0.00    -0.349 N 
ATOM     11  HN  UNL     1      -5.521  97.151   8.841  1.00  0.00     0.167 HD
ENDROOT
BRANCH   2  12
HETATM   12  N   UNL     1      -3.522  97.425   6.623  1.00  0.00    -0.397 N 
ATOM     13  HN2 UNL     1      -3.057  97.463   5.715  1.00  0.00     0.156 HD
ATOM     14  HN1 UNL     1      -4.472  97.054   6.652  1.00  0.00     0.156 HD
ENDBRANCH   2  12
TORSDOF 1
ENDMDL
MODEL 4
REMARK VINA RESULT:    -4.106     16.068     17.348
REMARK INTER + INTRA:          -4.226
REMARK INTER:                  -4.226
REMARK INTRA:                   0.000
REMARK UNBOUND:                 0.000
REMARK  1 active torsions:
REMARK  status: ('A' for Active; 'I' for Inactive)
REMARK    1  A    between atoms: N_2  and  C_5 
ROOT
HETATM    1  C   UNL     1      -2.728  98.131   8.831  1.00  0.00     0.086 A 
HETATM    2  C   UNL     1      -4.036  97.650   8.562  1.00  0.00     0.055 A 
HETATM    3  C   UNL     1      -4.946  97.640   9.612  1.00  0.00     0.031 A 
HETATM    4  C   UNL     1      -4.573  98.098  10.891  1.00  0.00     0.005 A 
HETATM    5  C   UNL     1      -3.307  98.578  11.161  1.00  0.00     0.032 A 
HETATM    6  C   UNL     1      -2.402  98.592  10.111  1.00  0.00     0.062 A 
HETATM    7  N   UNL     1      -1.092  98.999  10.035  1.00  0.00    -0.350 N 
ATOM      8  HN  UNL     1      -0.533  99.394  10.793  1.00  0.00     0.166 HD
HETATM    9  C   UNL     1      -0.687  98.780   8.775  1.00  0.00     0.181 A 
HETATM   10  N   UNL     1      -1.620  98.271   8.002  1.00  0.00    -0.349 N 
ATOM     11  HN  UNL     1      -1.547  98.032   7.014  1.00  0.00     0.167 HD
ENDROOT
BRANCH   2  12
HETATM   12  N   UNL     1      -4.412  97.202   7.326  1.00  0.00    -0.397 N 
ATOM     13  HN2 UNL     1      -3.724  96.776   6.706  1.00  0.00     0.156 HD
ATOM     14  HN1 UNL     1      -5.371  97.279   6.985  1.00  0.00     0.156 HD
ENDBRANCH   2  12
TORSDOF 1
ENDMDL
MODEL 5
REMARK VINA RESULT:    -4.085     16.714     18.117
REMARK INTER + INTRA:          -4.204
REMARK INTER:                  -4.204
REMARK INTRA:                   0.000
REMARK UNBOUND:                 0.000
REMARK  1 active torsions:
REMARK  status: ('A' for Active; 'I' for Inactive)
REMARK    1  A    between atoms: N_2  and  C_5 
ROOT
HETATM    1  C   UNL     1      -2.974  97.929   8.203  1.00  0.00     0.086 A 
HETATM    2  C   UNL     1      -1.874  98.366   8.985  1.00  0.00     0.055 A 
HETATM    3  C   UNL     1      -2.089  98.566  10.344  1.00  0.00     0.031 A 
HETATM    4  C   UNL     1      -3.357  98.336  10.912  1.00  0.00     0.005 A 
HETATM    5  C   UNL     1      -4.431  97.900  10.163  1.00  0.00     0.032 A 
HETATM    6  C   UNL     1      -4.213  97.695   8.810  1.00  0.00     0.062 A 
HETATM    7  N   UNL     1      -5.044  97.270   7.801  1.00  0.00    -0.350 N 
ATOM      8  HN  UNL     1      -6.026  97.009   7.892  1.00  0.00     0.166 HD
HETATM    9  C   UNL     1      -4.318  97.263   6.674  1.00  0.00     0.181 A 
HETATM   10  N   UNL     1      -3.070  97.637   6.847  1.00  0.00    -0.349 N 
ATOM     11  HN  UNL     1      -2.335  97.700   6.143  1.00  0.00     0.167 HD
ENDROOT
BRANCH   2  12
HETATM   12  N   UNL     1      -0.637  98.595   8.448  1.00  0.00    -0.397 N 
ATOM     13  HN2 UNL     1      -0.512  99.331   7.753  1.00  0.00     0.156 HD
ATOM     14  HN1 UNL     1       0.184  98.050   8.713  1.00  0.00     0.156 HD
ENDBRANCH   2  12
TORSDOF 1
ENDMDL
MODEL 6
REMARK VINA RESULT:    -4.082      0.979      2.546
REMARK INTER + INTRA:          -4.201
REMARK INTER:                  -4.201
REMARK INTRA:                   0.000
REMARK UNBOUND:                 0.000
REMARK  1 active torsions:
REMARK  status: ('A' for Active; 'I' for Inactive)
REMARK    1  A    between atoms: N_2  and  C_5 
ROOT
HETATM    1  C   UNL     1       7.420 105.702  21.739  1.00  0.00     0.086 A 
HETATM    2  C   UNL     1       8.162 106.770  21.170  1.00  0.00     0.055 A 
HETATM    3  C   UNL     1       7.519 107.573  20.235  1.00  0.00     0.031 A 
HETATM    4  C   UNL     1       6.179 107.328  19.878  1.00  0.00     0.005 A 
HETATM    5  C   UNL     1       5.445 106.298  20.434  1.00  0.00     0.032 A 
HETATM    6  C   UNL     1       6.086 105.503  21.369  1.00  0.00     0.062 A 
HETATM    7  N   UNL     1       5.657 104.421  22.102  1.00  0.00    -0.350 N 
ATOM      8  HN  UNL     1       4.726 104.004  22.080  1.00  0.00     0.166 HD
HETATM    9  C   UNL     1       6.695 104.021  22.852  1.00  0.00     0.181 A 
HETATM   10  N   UNL     1       7.776 104.750  22.688  1.00  0.00    -0.349 N 
ATOM     11  HN  UNL     1       8.676 104.641  23.155  1.00  0.00     0.167 HD
ENDROOT
BRANCH   2  12
HETATM   12  N   UNL     1       9.464 107.020  21.506  1.00  0.00    -0.397 N 
ATOM     13  HN2 UNL     1       9.811 106.759  22.429  1.00  0.00     0.156 HD
ATOM     14  HN1 UNL     1      10.118 107.467  20.864  1.00  0.00     0.156 HD
ENDBRANCH   2  12
TORSDOF 1
ENDMDL
MODEL 7
REMARK VINA RESULT:    -3.994     14.930     16.174
REMARK INTER + INTRA:          -4.110
REMARK INTER:                  -4.110
REMARK INTRA:                   0.000
REMARK UNBOUND:                 0.000
REMARK  1 active torsions:
REMARK  status: ('A' for Active; 'I' for Inactive)
REMARK    1  A    between atoms: N_2  and  C_5 
ROOT
HETATM    1  C   UNL     1      -3.076  99.582  10.867  1.00  0.00     0.086 A 
HETATM    2  C   UNL     1      -3.745 100.505  11.713  1.00  0.00     0.055 A 
HETATM    3  C   UNL     1      -4.994 100.140  12.201  1.00  0.00     0.031 A 
HETATM    4  C   UNL     1      -5.562  98.896  11.865  1.00  0.00     0.005 A 
HETATM    5  C   UNL     1      -4.916  97.987  11.052  1.00  0.00     0.032 A 
HETATM    6  C   UNL     1      -3.668  98.350  10.571  1.00  0.00     0.062 A 
HETATM    7  N   UNL     1      -2.772  97.694   9.760  1.00  0.00    -0.350 N 
ATOM      8  HN  UNL     1      -2.884  96.763   9.358  1.00  0.00     0.166 HD
HETATM    9  C   UNL     1      -1.721  98.512   9.599  1.00  0.00     0.181 A 
HETATM   10  N   UNL     1      -1.836  99.652  10.241  1.00  0.00    -0.349 N 
ATOM     11  HN  UNL     1      -1.164 100.419  10.275  1.00  0.00     0.167 HD
ENDROOT
BRANCH   2  12
HETATM   12  N   UNL     1      -3.206 101.716  12.048  1.00  0.00    -0.397 N 
ATOM     13  HN2 UNL     1      -2.322 102.013  11.634  1.00  0.00     0.156 HD
ATOM     14  HN1 UNL     1      -3.655 102.351  12.709  1.00  0.00     0.156 HD
ENDBRANCH   2  12
TORSDOF 1
ENDMDL
MODEL 8
REMARK VINA RESULT:    -3.906     16.487     17.797
REMARK INTER + INTRA:          -4.020
REMARK INTER:                  -4.020
REMARK INTRA:                   0.000
REMARK UNBOUND:                 0.000
REMARK  1 active torsions:
REMARK  status: ('A' for Active; 'I' for Inactive)
REMARK    1  A    between atoms: N_2  and  C_5 
ROOT
HETATM    1  C   UNL     1      -3.145  98.155   9.415  1.00  0.00     0.086 A 
HETATM    2  C   UNL     1      -1.813  98.607   9.229  1.00  0.00     0.055 A 
HETATM    3  C   UNL     1      -1.297  98.576   7.939  1.00  0.00     0.031 A 
HETATM    4  C   UNL     1      -2.080  98.114   6.863  1.00  0.00     0.005 A 
HETATM    5  C   UNL     1      -3.380  97.681   7.031  1.00  0.00     0.032 A 
HETATM    6  C   UNL     1      -3.894  97.719   8.317  1.00  0.00     0.062 A 
HETATM    7  N   UNL     1      -5.125  97.374   8.823  1.00  0.00    -0.350 N 
ATOM      8  HN  UNL     1      -5.921  97.015   8.295  1.00  0.00     0.166 HD
HETATM    9  C   UNL     1      -5.081  97.599  10.145  1.00  0.00     0.181 A 
HETATM   10  N   UNL     1      -3.929  98.074  10.561  1.00  0.00    -0.349 N 
ATOM     11  HN  UNL     1      -3.668  98.328  11.513  1.00  0.00     0.167 HD
ENDROOT
BRANCH   2  12
HETATM   12  N   UNL     1      -1.041  99.059  10.264  1.00  0.00    -0.397 N 
ATOM     13  HN2 UNL     1      -1.456  99.632  10.998  1.00  0.00     0.156 HD
ATOM     14  HN1 UNL     1      -0.045  98.846  10.337  1.00  0.00     0.156 HD
ENDBRANCH   2  12
TORSDOF 1
ENDMDL
MODEL 9
REMARK VINA RESULT:    -3.864      1.214      3.068
REMARK INTER + INTRA:          -3.977
REMARK INTER:                  -3.977
REMARK INTRA:                   0.000
REMARK UNBOUND:                 0.000
REMARK  1 active torsions:
REMARK  status: ('A' for Active; 'I' for Inactive)
REMARK    1  A    between atoms: N_2  and  C_5 
ROOT
HETATM    1  C   UNL     1       5.450 106.007  21.095  1.00  0.00     0.086 A 
HETATM    2  C   UNL     1       5.856 105.160  22.159  1.00  0.00     0.055 A 
HETATM    3  C   UNL     1       7.207 105.138  22.484  1.00  0.00     0.031 A 
HETATM    4  C   UNL     1       8.128 105.936  21.779  1.00  0.00     0.005 A 
HETATM    5  C   UNL     1       7.743 106.771  20.749  1.00  0.00     0.032 A 
HETATM    6  C   UNL     1       6.395 106.796  20.431  1.00  0.00     0.062 A 
HETATM    7  N   UNL     1       5.688 107.502  19.486  1.00  0.00    -0.350 N 
ATOM      8  HN  UNL     1       6.069 108.177  18.823  1.00  0.00     0.166 HD
HETATM    9  C   UNL     1       4.404 107.133  19.603  1.00  0.00     0.181 A 
HETATM   10  N   UNL     1       4.193 106.249  20.551  1.00  0.00    -0.349 N 
ATOM     11  HN  UNL     1       3.304 105.833  20.828  1.00  0.00     0.167 HD
ENDROOT
BRANCH   2  12
HETATM   12  N   UNL     1       4.972 104.379  22.852  1.00  0.00    -0.397 N 
ATOM     13  HN2 UNL     1       5.112 103.370  22.900  1.00  0.00     0.156 HD
ATOM     14  HN1 UNL     1       4.160 104.767  23.334  1.00  0.00     0.156 HD
ENDBRANCH   2  12
TORSDOF 1
ENDMDL
MODEL 10
REMARK VINA RESULT:    -3.808     15.041     16.377
REMARK INTER + INTRA:          -3.919
REMARK INTER:                  -3.919
REMARK INTRA:                   0.000
REMARK UNBOUND:                 0.000
REMARK  1 active torsions:
REMARK  status: ('A' for Active; 'I' for Inactive)
REMARK    1  A    between atoms: N_2  and  C_5 
ROOT
HETATM    1  C   UNL     1      -4.756  99.746  11.943  1.00  0.00     0.086 A 
HETATM    2  C   UNL     1      -3.555 100.328  11.460  1.00  0.00     0.055 A 
HETATM    3  C   UNL     1      -2.779  99.573  10.588  1.00  0.00     0.031 A 
HETATM    4  C   UNL     1      -3.183  98.280  10.203  1.00  0.00     0.005 A 
HETATM    5  C   UNL     1      -4.354  97.708  10.658  1.00  0.00     0.032 A 
HETATM    6  C   UNL     1      -5.129  98.465  11.523  1.00  0.00     0.062 A 
HETATM    7  N   UNL     1      -6.328  98.207  12.145  1.00  0.00    -0.350 N 
ATOM      8  HN  UNL     1      -6.886  97.357  12.059  1.00  0.00     0.166 HD
HETATM    9  C   UNL     1      -6.623  99.285  12.886  1.00  0.00     0.181 A 
HETATM   10  N   UNL     1      -5.729 100.244  12.802  1.00  0.00    -0.349 N 
ATOM     11  HN  UNL     1      -5.745 101.153  13.265  1.00  0.00     0.167 HD
ENDROOT
BRANCH   2  12
HETATM   12  N   UNL     1      -3.149 101.582  11.825  1.00  0.00    -0.397 N 
ATOM     13  HN2 UNL     1      -2.791 102.227  11.121  1.00  0.00     0.156 HD
ATOM     14  HN1 UNL     1      -3.186 101.909  12.791  1.00  0.00     0.156 HD
ENDBRANCH   2  12
TORSDOF 1
ENDMDL
MODEL 11
REMARK VINA RESULT:    -3.794     18.233     18.964
REMARK INTER + INTRA:          -3.905
REMARK INTER:                  -3.905
REMARK INTRA:                   0.000
REMARK UNBOUND:                 0.000
REMARK  1 active torsions:
REMARK  status: ('A' for Active; 'I' for Inactive)
REMARK    1  A    between atoms: N_2  and  C_5 
ROOT
HETATM    1  C   UNL     1      12.980 102.744   4.378  1.00  0.00     0.086 A 
HETATM    2  C   UNL     1      13.220 101.513   3.714  1.00  0.00     0.055 A 
HETATM    3  C   UNL     1      12.517 101.267   2.540  1.00  0.00     0.031 A 
HETATM    4  C   UNL     1      11.604 102.215   2.038  1.00  0.00     0.005 A 
HETATM    5  C   UNL     1      11.370 103.419   2.671  1.00  0.00     0.032 A 
HETATM    6  C   UNL     1      12.076 103.665   3.837  1.00  0.00     0.062 A 
HETATM    7  N   UNL     1      12.087 104.740   4.694  1.00  0.00    -0.350 N 
ATOM      8  HN  UNL     1      11.541 105.597   4.600  1.00  0.00     0.166 HD
HETATM    9  C   UNL     1      12.950 104.447   5.677  1.00  0.00     0.181 A 
HETATM   10  N   UNL     1      13.524 103.273   5.543  1.00  0.00    -0.349 N 
ATOM     11  HN  UNL     1      14.216 102.844   6.157  1.00  0.00     0.167 HD
ENDROOT
BRANCH   2  12
HETATM   12  N   UNL     1      14.103 100.584   4.189  1.00  0.00    -0.397 N 
ATOM     13  HN2 UNL     1      14.260 100.497   5.194  1.00  0.00     0.156 HD
ATOM     14  HN1 UNL     1      14.627  99.961   3.573  1.00  0.00     0.156 HD
ENDBRANCH   2  12
TORSDOF 1
ENDMDL
MODEL 12
REMARK VINA RESULT:    -3.734     10.607     12.347
REMARK INTER + INTRA:          -3.844
REMARK INTER:                  -3.844
REMARK INTRA:                   0.000
REMARK UNBOUND:                 0.000
REMARK  1 active torsions:
REMARK  status: ('A' for Active; 'I' for Inactive)
REMARK    1  A    between atoms: N_2  and  C_5 
ROOT
HETATM    1  C   UNL     1       3.243 109.218  10.719  1.00  0.00     0.086 A 
HETATM    2  C   UNL     1       2.419 108.268  10.060  1.00  0.00     0.055 A 
HETATM    3  C   UNL     1       2.027 108.551   8.757  1.00  0.00     0.031 A 
HETATM    4  C   UNL     1       2.443 109.737   8.123  1.00  0.00     0.005 A 
HETATM    5  C   UNL     1       3.254 110.662   8.749  1.00  0.00     0.032 A 
HETATM    6  C   UNL     1       3.648 110.376  10.047  1.00  0.00     0.062 A 
HETATM    7  N   UNL     1       4.439 111.062  10.937  1.00  0.00    -0.350 N 
ATOM      8  HN  UNL     1       4.905 111.955  10.773  1.00  0.00     0.166 HD
HETATM    9  C   UNL     1       4.482 110.334  12.063  1.00  0.00     0.181 A 
HETATM   10  N   UNL     1       3.796 109.216  11.995  1.00  0.00    -0.349 N 
ATOM     11  HN  UNL     1       3.692 108.504  12.717  1.00  0.00     0.167 HD
ENDROOT
BRANCH   2  12
HETATM   12  N   UNL     1       2.006 107.113  10.664  1.00  0.00    -0.397 N 
ATOM     13  HN2 UNL     1       2.615 106.640  11.332  1.00  0.00     0.156 HD
ATOM     14  HN1 UNL     1       1.098 106.689  10.471  1.00  0.00     0.156 HD
ENDBRANCH   2  12
TORSDOF 1
ENDMDL
MODEL 13
REMARK VINA RESULT:    -3.730     16.890     17.842
REMARK INTER + INTRA:          -3.839
REMARK INTER:                  -3.839
REMARK INTRA:                   0.000
REMARK UNBOUND:                 0.000
REMARK  1 active torsions:
REMARK  status: ('A' for Active; 'I' for Inactive)
REMARK    1  A    between atoms: N_2  and  C_5 
ROOT
HETATM    1  C   UNL     1      -3.828  99.230   8.338  1.00  0.00     0.086 A 
HETATM    2  C   UNL     1      -2.519  98.752   8.069  1.00  0.00     0.055 A 
HETATM    3  C   UNL     1      -1.830  98.140   9.110  1.00  0.00     0.031 A 
HETATM    4  C   UNL     1      -2.424  98.001  10.379  1.00  0.00     0.005 A 
HETATM    5  C   UNL     1      -3.700  98.452  10.650  1.00  0.00     0.032 A 
HETATM    6  C   UNL     1      -4.387  99.057   9.609  1.00  0.00     0.062 A 
HETATM    7  N   UNL     1      -5.648  99.601   9.535  1.00  0.00    -0.350 N 
ATOM      8  HN  UNL     1      -6.335  99.644  10.288  1.00  0.00     0.166 HD
HETATM    9  C   UNL     1      -5.801 100.063   8.286  1.00  0.00     0.181 A 
HETATM   10  N   UNL     1      -4.754  99.865   7.517  1.00  0.00    -0.349 N 
ATOM     11  HN  UNL     1      -4.644 100.120   6.536  1.00  0.00     0.167 HD
ENDROOT
BRANCH   2  12
HETATM   12  N   UNL     1      -1.930  98.881   6.841  1.00  0.00    -0.397 N 
ATOM     13  HN2 UNL     1      -2.096  98.178   6.120  1.00  0.00     0.156 HD
ATOM     14  HN1 UNL     1      -1.316  99.662   6.608  1.00  0.00     0.156 HD
ENDBRANCH   2  12
TORSDOF 1
ENDMDL
MODEL 14
REMARK VINA RESULT:    -3.637     11.868     12.731
REMARK INTER + INTRA:          -3.743
REMARK INTER:                  -3.743
REMARK INTRA:                   0.000
REMARK UNBOUND:                 0.000
REMARK  1 active torsions:
REMARK  status: ('A' for Active; 'I' for Inactive)
REMARK    1  A    between atoms: N_2  and  C_5 
ROOT
HETATM    1  C   UNL     1       0.316 108.112  10.732  1.00  0.00     0.086 A 
HETATM    2  C   UNL     1       1.707 107.851  10.613  1.00  0.00     0.055 A 
HETATM    3  C   UNL     1       2.566 108.943  10.579  1.00  0.00     0.031 A 
HETATM    4  C   UNL     1       2.063 110.256  10.665  1.00  0.00     0.005 A 
HETATM    5  C   UNL     1       0.714 110.521  10.791  1.00  0.00     0.032 A 
HETATM    6  C   UNL     1      -0.140 109.430  10.830  1.00  0.00     0.062 A 
HETATM    7  N   UNL     1      -1.507 109.340  10.951  1.00  0.00    -0.350 N 
ATOM      8  HN  UNL     1      -2.161 110.117  11.047  1.00  0.00     0.166 HD
HETATM    9  C   UNL     1      -1.816 108.035  10.921  1.00  0.00     0.181 A 
HETATM   10  N   UNL     1      -0.771 107.248  10.800  1.00  0.00    -0.349 N 
ATOM     11  HN  UNL     1      -0.760 106.229  10.765  1.00  0.00     0.167 HD
ENDROOT
BRANCH   2  12
HETATM   12  N   UNL     1       2.209 106.582  10.528  1.00  0.00    -0.397 N 
ATOM     13  HN2 UNL     1       2.497 106.207   9.624  1.00  0.00     0.156 HD
ATOM     14  HN1 UNL     1       2.310 105.978  11.344  1.00  0.00     0.156 HD
ENDBRANCH   2  12
TORSDOF 1
ENDMDL
MODEL 15
REMARK VINA RESULT:    -3.614     18.702     19.363
REMARK INTER + INTRA:          -3.720
REMARK INTER:                  -3.720
REMARK INTRA:                   0.000
REMARK UNBOUND:                 0.000
REMARK  1 active torsions:
REMARK  status: ('A' for Active; 'I' for Inactive)
REMARK    1  A    between atoms: N_2  and  C_5 
ROOT
HETATM    1  C   UNL     1      12.685 102.407   3.340  1.00  0.00     0.086 A 
HETATM    2  C   UNL     1      13.741 101.958   4.175  1.00  0.00     0.055 A 
HETATM    3  C   UNL     1      14.481 102.921   4.851  1.00  0.00     0.031 A 
HETATM    4  C   UNL     1      14.181 104.290   4.706  1.00  0.00     0.005 A 
HETATM    5  C   UNL     1      13.149 104.737   3.904  1.00  0.00     0.032 A 
HETATM    6  C   UNL     1      12.410 103.774   3.236  1.00  0.00     0.062 A 
HETATM    7  N   UNL     1      11.337 103.871   2.381  1.00  0.00    -0.350 N 
ATOM      8  HN  UNL     1      10.873 104.730   2.085  1.00  0.00     0.166 HD
HETATM    9  C   UNL     1      11.017 102.622   2.013  1.00  0.00     0.181 A 
HETATM   10  N   UNL     1      11.779 101.700   2.557  1.00  0.00    -0.349 N 
ATOM     11  HN  UNL     1      11.718 100.689   2.434  1.00  0.00     0.167 HD
ENDROOT
BRANCH   2  12
HETATM   12  N   UNL     1      14.044 100.633   4.326  1.00  0.00    -0.397 N 
ATOM     13  HN2 UNL     1      13.975 100.195   5.244  1.00  0.00     0.156 HD
ATOM     14  HN1 UNL     1      14.347 100.049   3.545  1.00  0.00     0.156 HD
ENDBRANCH   2  12
TORSDOF 1
ENDMDL
MODEL 16
REMARK VINA RESULT:    -3.590      2.462      3.476
REMARK INTER + INTRA:          -3.695
REMARK INTER:                  -3.695
REMARK INTRA:                   0.000
REMARK UNBOUND:                 0.000
REMARK  1 active torsions:
REMARK  status: ('A' for Active; 'I' for Inactive)
REMARK    1  A    between atoms: N_2  and  C_5 
ROOT
HETATM    1  C   UNL     1       3.650 106.633  20.400  1.00  0.00     0.086 A 
HETATM    2  C   UNL     1       2.456 106.959  19.705  1.00  0.00     0.055 A 
HETATM    3  C   UNL     1       2.543 107.147  18.331  1.00  0.00     0.031 A 
HETATM    4  C   UNL     1       3.776 107.013  17.664  1.00  0.00     0.005 A 
HETATM    5  C   UNL     1       4.942 106.685  18.328  1.00  0.00     0.032 A 
HETATM    6  C   UNL     1       4.851 106.492  19.698  1.00  0.00     0.062 A 
HETATM    7  N   UNL     1       5.795 106.160  20.641  1.00  0.00    -0.350 N 
ATOM      8  HN  UNL     1       6.785 105.982  20.473  1.00  0.00     0.166 HD
HETATM    9  C   UNL     1       5.164 106.116  21.824  1.00  0.00     0.181 A 
HETATM   10  N   UNL     1       3.880 106.380  21.748  1.00  0.00    -0.349 N 
ATOM     11  HN  UNL     1       3.201 106.395  22.509  1.00  0.00     0.167 HD
ENDROOT
BRANCH   2  12
HETATM   12  N   UNL     1       1.252 107.093  20.339  1.00  0.00    -0.397 N 
ATOM     13  HN2 UNL     1       0.960 108.005  20.691  1.00  0.00     0.156 HD
ATOM     14  HN1 UNL     1       0.618 106.306  20.482  1.00  0.00     0.156 HD
ENDBRANCH   2  12
TORSDOF 1
ENDMDL
MODEL 17
REMARK VINA RESULT:    -3.556     16.058     16.902
REMARK INTER + INTRA:          -3.660
REMARK INTER:                  -3.660
REMARK INTRA:                   0.000
REMARK UNBOUND:                 0.000
REMARK  1 active torsions:
REMARK  status: ('A' for Active; 'I' for Inactive)
REMARK    1  A    between atoms: N_2  and  C_5 
ROOT
HETATM    1  C   UNL     1      -4.708  99.854  10.287  1.00  0.00     0.086 A 
HETATM    2  C   UNL     1      -4.356  99.701   8.920  1.00  0.00     0.055 A 
HETATM    3  C   UNL     1      -3.363  98.780   8.610  1.00  0.00     0.031 A 
HETATM    4  C   UNL     1      -2.738  98.029   9.624  1.00  0.00     0.005 A 
HETATM    5  C   UNL     1      -3.079  98.162  10.956  1.00  0.00     0.032 A 
HETATM    6  C   UNL     1      -4.074  99.077  11.261  1.00  0.00     0.062 A 
HETATM    7  N   UNL     1      -4.645  99.445  12.457  1.00  0.00    -0.350 N 
ATOM      8  HN  UNL     1      -4.418  99.072  13.379  1.00  0.00     0.166 HD
HETATM    9  C   UNL     1      -5.558 100.388  12.179  1.00  0.00     0.181 A 
HETATM   10  N   UNL     1      -5.651 100.672  10.900  1.00  0.00    -0.349 N 
ATOM     11  HN  UNL     1      -6.276 101.343  10.454  1.00  0.00     0.167 HD
ENDROOT
BRANCH   2  12
HETATM   12  N   UNL     1      -4.954 100.424   7.924  1.00  0.00    -0.397 N 
ATOM     13  HN2 UNL     1      -4.382 100.894   7.222  1.00  0.00     0.156 HD
ATOM     14  HN1 UNL     1      -5.967 100.520   7.850  1.00  0.00     0.156 HD
ENDBRANCH   2  12
TORSDOF 1
ENDMDL
MODEL 18
REMARK VINA RESULT:    -3.543     17.531     18.227
REMARK INTER + INTRA:          -3.646
REMARK INTER:                  -3.646
REMARK INTRA:                   0.000
REMARK UNBOUND:                 0.000
REMARK  1 active torsions:
REMARK  status: ('A' for Active; 'I' for Inactive)
REMARK    1  A    between atoms: N_2  and  C_5 
ROOT
HETATM    1  C   UNL     1      12.794 103.797   4.942  1.00  0.00     0.086 A 
HETATM    2  C   UNL     1      12.061 103.029   3.999  1.00  0.00     0.055 A 
HETATM    3  C   UNL     1      12.053 103.467   2.680  1.00  0.00     0.031 A 
HETATM    4  C   UNL     1      12.754 104.629   2.304  1.00  0.00     0.005 A 
HETATM    5  C   UNL     1      13.479 105.377   3.210  1.00  0.00     0.032 A 
HETATM    6  C   UNL     1      13.490 104.936   4.524  1.00  0.00     0.062 A 
HETATM    7  N   UNL     1      14.100 105.431   5.652  1.00  0.00    -0.350 N 
ATOM      8  HN  UNL     1      14.693 106.259   5.708  1.00  0.00     0.166 HD
HETATM    9  C   UNL     1      13.767 104.617   6.665  1.00  0.00     0.181 A 
HETATM   10  N   UNL     1      12.995 103.616   6.306  1.00  0.00    -0.349 N 
ATOM     11  HN  UNL     1      12.626 102.871   6.896  1.00  0.00     0.167 HD
ENDROOT
BRANCH   2  12
HETATM   12  N   UNL     1      11.375 101.899   4.349  1.00  0.00    -0.397 N 
ATOM     13  HN2 UNL     1      10.361 101.864   4.241  1.00  0.00     0.156 HD
ATOM     14  HN1 UNL     1      11.839 101.072   4.725  1.00  0.00     0.156 HD
ENDBRANCH   2  12
TORSDOF 1
ENDMDL
MODEL 19
REMARK VINA RESULT:    -3.527     16.815     17.651
REMARK INTER + INTRA:          -3.631
REMARK INTER:                  -3.631
REMARK INTRA:                   0.000
REMARK UNBOUND:                 0.000
REMARK  1 active torsions:
REMARK  status: ('A' for Active; 'I' for Inactive)
REMARK    1  A    between atoms: N_2  and  C_5 
ROOT
HETATM    1  C   UNL     1      12.538 104.150   5.598  1.00  0.00     0.086 A 
HETATM    2  C   UNL     1      13.738 104.673   6.148  1.00  0.00     0.055 A 
HETATM    3  C   UNL     1      14.680 105.187   5.265  1.00  0.00     0.031 A 
HETATM    4  C   UNL     1      14.439 105.187   3.877  1.00  0.00     0.005 A 
HETATM    5  C   UNL     1      13.272 104.690   3.332  1.00  0.00     0.032 A 
HETATM    6  C   UNL     1      12.332 104.183   4.215  1.00  0.00     0.062 A 
HETATM    7  N   UNL     1      11.090 103.629   4.013  1.00  0.00    -0.350 N 
ATOM      8  HN  UNL     1      10.621 103.498   3.117  1.00  0.00     0.166 HD
HETATM    9  C   UNL     1      10.612 103.293   5.221  1.00  0.00     0.181 A 
HETATM   10  N   UNL     1      11.425 103.586   6.210  1.00  0.00    -0.349 N 
ATOM     11  HN  UNL     1      11.273 103.433   7.207  1.00  0.00     0.167 HD
ENDROOT
BRANCH   2  12
HETATM   12  N   UNL     1      13.985 104.680   7.493  1.00  0.00    -0.397 N 
ATOM     13  HN2 UNL     1      14.424 103.872   7.935  1.00  0.00     0.156 HD
ATOM     14  HN1 UNL     1      13.745 105.472   8.089  1.00  0.00     0.156 HD
ENDBRANCH   2  12
TORSDOF 1
ENDMDL
MODEL 20
REMARK VINA RESULT:    -3.518     17.894     18.572
REMARK INTER + INTRA:          -3.621
REMARK INTER:                  -3.621
REMARK INTRA:                   0.000
REMARK UNBOUND:                 0.000
REMARK  1 active torsions:
REMARK  status: ('A' for Active; 'I' for Inactive)
REMARK    1  A    between atoms: N_2  and  C_5 
ROOT
HETATM    1  C   UNL     1      12.705 103.805   4.350  1.00  0.00     0.086 A 
HETATM    2  C   UNL     1      11.960 103.123   3.352  1.00  0.00     0.055 A 
HETATM    3  C   UNL     1      12.444 101.896   2.915  1.00  0.00     0.031 A 
HETATM    4  C   UNL     1      13.629 101.358   3.453  1.00  0.00     0.005 A 
HETATM    5  C   UNL     1      14.355 102.007   4.431  1.00  0.00     0.032 A 
HETATM    6  C   UNL     1      13.868 103.228   4.870  1.00  0.00     0.062 A 
HETATM    7  N   UNL     1      14.331 104.115   5.812  1.00  0.00    -0.350 N 
ATOM      8  HN  UNL     1      15.166 104.007   6.390  1.00  0.00     0.166 HD
HETATM    9  C   UNL     1      13.477 105.149   5.829  1.00  0.00     0.181 A 
HETATM   10  N   UNL     1      12.478 105.022   4.984  1.00  0.00    -0.349 N 
ATOM     11  HN  UNL     1      11.708 105.671   4.829  1.00  0.00     0.167 HD
ENDROOT
BRANCH   2  12
HETATM   12  N   UNL     1      10.808 103.634   2.820  1.00  0.00    -0.397 N 
ATOM     13  HN2 UNL     1      10.558 104.608   2.987  1.00  0.00     0.156 HD
ATOM     14  HN1 UNL     1      10.172 103.073   2.253  1.00  0.00     0.156 HD
ENDBRANCH   2  12
TORSDOF 1
ENDMDL
