REMARK  22 active torsions:
REMARK  status: ('A' for Active; 'I' for Inactive)
REMARK    1  A    between atoms: C_8  and  C_12 
REMARK    2  A    between atoms: C_12  and  C_13 
REMARK    3  A    between atoms: C_13  and  C_14 
REMARK    4  A    between atoms: C_14  and  O_16 
REMARK    5  A    between atoms: O_16  and  C_49 
REMARK    6  A    between atoms: C_21  and  C_24 
REMARK    7  A    between atoms: C_30  and  C_33 
REMARK    8  A    between atoms: C_44  and  C_45 
REMARK    9  A    between atoms: C_45  and  O_47 
REMARK   10  A    between atoms: C_49  and  C_50 
REMARK   11  A    between atoms: C_51  and  C_53 
REMARK   12  A    between atoms: C_53  and  C_54 
REMARK   13  A    between atoms: C_54  and  C_55 
REMARK   14  A    between atoms: C_55  and  C_56 
REMARK   15  A    between atoms: C_56  and  C_58 
REMARK   16  A    between atoms: C_58  and  C_59 
REMARK   17  A    between atoms: C_59  and  C_60 
REMARK   18  A    between atoms: C_60  and  C_61 
REMARK   19  A    between atoms: C_61  and  C_63 
REMARK   20  A    between atoms: C_63  and  C_64 
REMARK   21  A    between atoms: C_64  and  C_65 
REMARK   22  A    between atoms: C_65  and  C_66 
ROOT
HETATM    1  C   UNL     1     -52.586  63.458 347.537  1.00  0.00     0.014 A 
HETATM    2  C   UNL     1     -56.998  64.678 349.038  1.00  0.00     0.055 C 
HETATM    3  C   UNL     1     -55.037  66.055 353.346  1.00  0.00     0.060 C 
HETATM    4  C   UNL     1     -50.508  65.015 351.801  1.00  0.00     0.060 C 
HETATM    5  N   UNL     1     -54.660  64.224 348.523  1.00  0.00    -0.362 N 
ATOM      6  HN  UNL     1     -54.265  64.596 349.387  1.00  0.00     0.165 HD
HETATM    7  C   UNL     1     -53.925  63.574 347.493  1.00  0.00     0.024 C 
HETATM    8  C   UNL     1     -54.835  63.159 346.359  1.00  0.00     0.046 C 
HETATM    9  C   UNL     1     -56.169  63.875 346.727  1.00  0.00     0.041 C 
HETATM   10  C   UNL     1     -55.930  64.268 348.184  1.00  0.00     0.016 C 
HETATM   11  C   UNL     1     -56.366  65.073 345.843  1.00  0.00     0.017 C 
HETATM   12  N   UNL     1     -55.667  65.190 351.082  1.00  0.00    -0.355 N 
ATOM     13  HN  UNL     1     -54.739  64.936 350.742  1.00  0.00     0.166 HD
HETATM   14  C   UNL     1     -56.842  65.076 350.331  1.00  0.00     0.041 A 
HETATM   15  C   UNL     1     -57.955  65.496 351.217  1.00  0.00    -0.023 A 
HETATM   16  C   UNL     1     -57.418  65.889 352.430  1.00  0.00    -0.002 A 
HETATM   17  C   UNL     1     -55.931  65.702 352.373  1.00  0.00     0.045 A 
HETATM   18  C   UNL     1     -59.324  65.507 350.705  1.00  0.00     0.051 C 
HETATM   19  N   UNL     1     -52.906  65.299 352.362  1.00  0.00    -0.355 N 
ATOM     20  HN  UNL     1     -53.305  64.844 351.541  1.00  0.00     0.166 HD
HETATM   21  C   UNL     1     -53.607  65.863 353.344  1.00  0.00     0.041 A 
HETATM   22  C   UNL     1     -52.680  66.390 354.398  1.00  0.00    -0.027 A 
HETATM   23  C   UNL     1     -51.398  66.149 353.933  1.00  0.00    -0.024 A 
HETATM   24  C   UNL     1     -51.519  65.428 352.632  1.00  0.00     0.041 A 
HETATM   25  C   UNL     1     -53.097  67.105 355.609  1.00  0.00     0.051 C 
HETATM   26  N   UNL     1     -51.949  64.141 349.967  1.00  0.00    -0.354 N 
ATOM     27  HN  UNL     1     -52.842  64.223 350.452  1.00  0.00     0.166 HD
HETATM   28  C   UNL     1     -50.675  64.405 350.522  1.00  0.00     0.041 A 
HETATM   29  C   UNL     1     -49.670  64.004 349.568  1.00  0.00    -0.019 A 
HETATM   30  C   UNL     1     -50.367  63.607 348.404  1.00  0.00     0.046 A 
HETATM   31  C   UNL     1     -51.776  63.762 348.682  1.00  0.00     0.057 A 
HETATM   32  C   UNL     1     -48.214  64.024 349.735  1.00  0.00     0.052 C 
HETATM   33  C   UNL     1     -50.198  63.152 347.041  1.00  0.00     0.180 A 
HETATM   34  O   UNL     1     -49.177  62.894 346.425  1.00  0.00    -0.291 OA
HETATM   35  C   UNL     1     -51.630  63.085 346.419  1.00  0.00     0.197 A 
ENDROOT
BRANCH   8  36
HETATM   36  C   UNL     1     -54.993  61.662 346.241  1.00  0.00     0.021 C 
BRANCH  36  37
HETATM   37  C   UNL     1     -56.037  61.356 345.183  1.00  0.00     0.112 C 
BRANCH  37  38
HETATM   38  C   UNL     1     -56.294  59.885 345.150  1.00  0.00     0.259 C 
HETATM   39  O   UNL     1     -55.974  59.040 345.990  1.00  0.00    -0.265 OA
BRANCH  38  40
HETATM   40  O   UNL     1     -56.948  59.482 344.023  1.00  0.00    -0.318 OA
BRANCH  40  41
HETATM   41  C   UNL     1     -57.549  58.164 344.037  1.00  0.00     0.206 C 
BRANCH  41  42
HETATM   42  C   UNL     1     -58.851  58.243 344.752  1.00  0.00     0.002 C 
HETATM   43  C   UNL     1     -59.190  57.290 345.624  1.00  0.00    -0.086 C 
HETATM   44  C   UNL     1     -58.254  56.175 345.852  1.00  0.00     0.043 C 
BRANCH  43  45
HETATM   45  C   UNL     1     -60.477  57.279 346.393  1.00  0.00     0.033 C 
BRANCH  45  46
HETATM   46  C   UNL     1     -60.342  57.449 347.911  1.00  0.00     0.005 C 
BRANCH  46  47
HETATM   47  C   UNL     1     -61.638  57.077 348.623  1.00  0.00     0.004 C 
BRANCH  47  48
HETATM   48  C   UNL     1     -61.746  57.629 350.042  1.00  0.00    -0.019 C 
HETATM   49  C   UNL     1     -60.594  57.139 350.876  1.00  0.00     0.010 C 
BRANCH  48  50
HETATM   50  C   UNL     1     -63.073  57.282 350.719  1.00  0.00     0.004 C 
BRANCH  50  51
HETATM   51  C   UNL     1     -64.288  57.863 350.000  1.00  0.00     0.001 C 
BRANCH  51  52
HETATM   52  C   UNL     1     -64.362  59.384 350.038  1.00  0.00     0.004 C 
BRANCH  52  53
HETATM   53  C   UNL     1     -65.666  59.912 349.444  1.00  0.00    -0.019 C 
HETATM   54  C   UNL     1     -65.717  59.777 347.924  1.00  0.00     0.010 C 
BRANCH  53  55
HETATM   55  C   UNL     1     -65.850  61.372 349.810  1.00  0.00     0.004 C 
BRANCH  55  56
HETATM   56  C   UNL     1     -66.277  61.593 351.247  1.00  0.00     0.001 C 
BRANCH  56  57
HETATM   57  C   UNL     1     -66.534  63.080 351.478  1.00  0.00     0.004 C 
BRANCH  57  58
HETATM   58  C   UNL     1     -67.142  63.341 352.849  1.00  0.00    -0.023 C 
HETATM   59  C   UNL     1     -66.205  62.808 353.904  1.00  0.00     0.009 C 
HETATM   60  C   UNL     1     -67.351  64.822 353.055  1.00  0.00     0.009 C 
ENDBRANCH  57  58
ENDBRANCH  56  57
ENDBRANCH  55  56
ENDBRANCH  53  55
ENDBRANCH  52  53
ENDBRANCH  51  52
ENDBRANCH  50  51
ENDBRANCH  48  50
ENDBRANCH  47  48
ENDBRANCH  46  47
ENDBRANCH  45  46
ENDBRANCH  43  45
ENDBRANCH  41  42
ENDBRANCH  40  41
ENDBRANCH  38  40
ENDBRANCH  37  38
ENDBRANCH  36  37
ENDBRANCH   8  36
BRANCH  35  61
HETATM   61  C   UNL     1     -51.695  64.021 345.243  1.00  0.00     0.274 C 
HETATM   62  O   UNL     1     -51.413  63.802 344.071  1.00  0.00    -0.264 OA
BRANCH  61  63
HETATM   63  O   UNL     1     -52.125  65.286 345.587  1.00  0.00    -0.326 OA
HETATM   64  C   UNL     1     -52.060  66.272 344.564  1.00  0.00     0.213 C 
ENDBRANCH  61  63
ENDBRANCH  35  61
BRANCH  16  65
HETATM   65  C   UNL     1     -58.039  66.448 353.602  1.00  0.00     0.004 C 
HETATM   66  C   UNL     1     -59.320  66.322 353.939  1.00  0.00     0.012 C 
ENDBRANCH  16  65
BRANCH  23  67
HETATM   67  C   UNL     1     -50.112  66.476 354.576  1.00  0.00     0.037 C 
HETATM   68  C   UNL     1     -49.392  65.231 355.082  1.00  0.00     0.010 C 
ENDBRANCH  23  67
TORSDOF 22
