REMARK  10 active torsions:
REMARK  status: ('A' for Active; 'I' for Inactive)
REMARK    1  A    between atoms: C_1  and  O_8 
REMARK    2  A    between atoms: C_2  and  N_9 
REMARK    3  A    between atoms: C_6  and  C_24 
REMARK    4  A    between atoms: O_8  and  C_10 
REMARK    5  A    between atoms: C_10  and  C_11 
REMARK    6  A    between atoms: C_13  and  N_19 
REMARK    7  A    between atoms: C_28  and  C_31 
REMARK    8  A    between atoms: C_31  and  C_32 
REMARK    9  A    between atoms: C_31  and  O_33 
REMARK   10  A    between atoms: C_32  and  O_35 
ROOT
HETATM    1  C   UNL     1      -1.241   0.607  -1.921  1.00  0.00     0.114 A 
HETATM    2  C   UNL     1      -2.084   1.657  -2.325  1.00  0.00     0.132 A 
HETATM    3  N   UNL     1      -2.116   2.814  -1.612  1.00  0.00    -0.350 N 
ATOM      4  HN  UNL     1      -2.736   3.564  -1.919  1.00  0.00     0.166 HD
HETATM    5  C   UNL     1      -1.352   3.006  -0.506  1.00  0.00     0.102 A 
HETATM    6  C   UNL     1      -0.490   1.996  -0.062  1.00  0.00     0.001 A 
HETATM    7  C   UNL     1      -0.444   0.791  -0.776  1.00  0.00     0.055 A 
ENDROOT
BRANCH   1   8
HETATM    8  O   UNL     1      -1.238  -0.588  -2.664  1.00  0.00    -0.338 OA
BRANCH   8   9
HETATM    9  C   UNL     1      -0.344  -1.690  -2.479  1.00  0.00     0.160 C 
HETATM   10  C   UNL     1       1.035  -1.347  -3.053  1.00  0.00     0.045 C 
BRANCH   9  11
HETATM   11  C   UNL     1      -0.911  -2.914  -3.171  1.00  0.00     0.004 A 
HETATM   12  C   UNL     1      -1.016  -4.166  -2.514  1.00  0.00     0.084 A 
HETATM   13  C   UNL     1      -1.622  -5.247  -3.167  1.00  0.00     0.037 A 
HETATM   14  C   UNL     1      -2.087  -5.113  -4.476  1.00  0.00     0.044 A 
HETATM   15  C   UNL     1      -1.958  -3.894  -5.143  1.00  0.00     0.117 A 
HETATM   16  C   UNL     1      -1.378  -2.800  -4.495  1.00  0.00     0.054 A 
HETATM   17  F   UNL     1      -2.406  -3.768  -6.416  1.00  0.00    -0.206 F 
BRANCH  12  18
HETATM   18  N   UNL     1      -0.535  -4.357  -1.179  1.00  0.00    -0.197 N 
HETATM   19  N   UNL     1      -1.351  -4.558  -0.066  1.00  0.00    -0.289 N 
HETATM   20  C   UNL     1      -0.487  -4.493   1.067  1.00  0.00     0.127 A 
HETATM   21  H   UNL     1      -2.391  -4.642  -0.074  1.00  0.00     0.188 HD
HETATM   22  C   UNL     1       0.763  -4.276   0.658  1.00  0.00     0.127 A 
HETATM   23  N   UNL     1       0.786  -4.182  -0.764  1.00  0.00    -0.289 N 
HETATM   24  H   UNL     1       1.611  -4.018  -1.383  1.00  0.00     0.188 HD
ENDBRANCH  12  18
ENDBRANCH   9  11
ENDBRANCH   8   9
ENDBRANCH   1   8
BRANCH   2  25
HETATM   25  N   UNL     1      -2.922   1.523  -3.476  1.00  0.00    -0.383 N 
HETATM   26  H   UNL     1      -3.548   2.310  -3.760  1.00  0.00     0.157 HD
HETATM   27  H   UNL     1      -2.936   0.648  -4.045  1.00  0.00     0.157 HD
ENDBRANCH   2  25
BRANCH   6  28
HETATM   28  C   UNL     1       0.307   2.153   1.173  1.00  0.00     0.040 A 
HETATM   29  C   UNL     1       1.035   3.272   1.600  1.00  0.00     0.024 A 
HETATM   30  N   UNL     1       1.647   3.124   2.807  1.00  0.00    -0.354 N 
HETATM   31  C   UNL     1       1.165   4.548   0.828  1.00  0.00     0.069 C 
HETATM   32  C   UNL     1       1.452   1.898   3.345  1.00  0.00     0.088 A 
ATOM     33  HN  UNL     1       2.194   3.858   3.257  1.00  0.00     0.166 HD
HETATM   34  S   UNL     1       0.480   0.955   2.344  1.00  0.00    -0.071 SA
BRANCH  32  35
HETATM   35  C   UNL     1       1.974   1.490   4.709  1.00  0.00     0.124 C 
HETATM   36  C   UNL     1       0.790   1.353   5.679  1.00  0.00     0.055 C 
BRANCH  35  37
HETATM   37  C   UNL     1       2.772   0.162   4.630  1.00  0.00     0.208 C 
BRANCH  37  38
HETATM   38  O   UNL     1       1.950  -0.925   4.290  1.00  0.00    -0.397 OA
HETATM   39  H   UNL     1       1.635  -1.329   5.140  1.00  0.00     0.209 HD
ENDBRANCH  37  38
ENDBRANCH  35  37
BRANCH  35  40
HETATM   40  O   UNL     1       2.816   2.500   5.215  1.00  0.00    -0.381 OA
HETATM   41  H   UNL     1       3.603   2.574   4.613  1.00  0.00     0.211 HD
ENDBRANCH  35  40
ENDBRANCH  32  35
ENDBRANCH   6  28
TORSDOF 10
