REMARK  9 active torsions:
REMARK  status: ('A' for Active; 'I' for Inactive)
REMARK    1  A    between atoms: C_1  and  O_8 
REMARK    2  A    between atoms: C_6  and  C_26 
REMARK    3  A    between atoms: O_8  and  C_10 
REMARK    4  A    between atoms: C_10  and  C_11 
REMARK    5  A    between atoms: C_13  and  N_19 
REMARK    6  A    between atoms: C_30  and  C_33 
REMARK    7  A    between atoms: C_33  and  C_34 
REMARK    8  A    between atoms: C_33  and  O_35 
REMARK    9  A    between atoms: C_34  and  O_38 
ROOT
HETATM    1  C   UNL     1      30.650  45.825  10.678  1.00  0.00     0.111 A 
HETATM    2  C   UNL     1      30.062  44.635  11.094  1.00  0.00     0.149 A 
HETATM    3  N   UNL     1      29.898  43.576  10.261  1.00  0.00    -0.351 N 
ATOM      4  HN  UNL     1      29.472  42.707  10.584  1.00  0.00     0.166 HD
HETATM    5  C   UNL     1      30.324  43.720   8.983  1.00  0.00     0.102 A 
HETATM    6  C   UNL     1      30.909  44.864   8.465  1.00  0.00     0.001 A 
HETATM    7  C   UNL     1      31.080  45.925   9.349  1.00  0.00     0.054 A 
HETATM    8  N   UNL     1      29.619  44.521  12.432  1.00  0.00    -0.080 NA
ENDROOT
BRANCH   1   9
HETATM    9  O   UNL     1      30.748  46.835  11.633  1.00  0.00    -0.338 OA
BRANCH   9  10
HETATM   10  C   UNL     1      31.444  48.017  11.227  1.00  0.00     0.160 C 
HETATM   11  C   UNL     1      31.887  48.724  12.492  1.00  0.00     0.045 C 
BRANCH  10  12
HETATM   12  C   UNL     1      30.512  48.893  10.446  1.00  0.00     0.004 A 
HETATM   13  C   UNL     1      30.921  49.552   9.270  1.00  0.00     0.084 A 
HETATM   14  C   UNL     1      29.999  50.335   8.563  1.00  0.00     0.037 A 
HETATM   15  C   UNL     1      28.676  50.430   9.005  1.00  0.00     0.044 A 
HETATM   16  C   UNL     1      28.279  49.782  10.173  1.00  0.00     0.117 A 
HETATM   17  C   UNL     1      29.194  49.018  10.902  1.00  0.00     0.054 A 
HETATM   18  F   UNL     1      27.012  49.894  10.597  1.00  0.00    -0.206 F 
BRANCH  13  19
HETATM   19  N   UNL     1      32.220  49.453   8.726  1.00  0.00    -0.197 N 
HETATM   20  N   UNL     1      32.379  49.143   7.423  1.00  0.00    -0.289 N 
HETATM   21  C   UNL     1      33.627  49.548   7.168  1.00  0.00     0.127 A 
ATOM     22  HN  UNL     1      31.711  48.707   6.788  1.00  0.00     0.188 HD
HETATM   23  C   UNL     1      34.177  50.105   8.328  1.00  0.00     0.127 A 
HETATM   24  N   UNL     1      33.267  50.062   9.309  1.00  0.00    -0.289 N 
ATOM     25  HN  UNL     1      33.348  50.407  10.265  1.00  0.00     0.188 HD
ENDBRANCH  13  19
ENDBRANCH  10  12
ENDBRANCH   9  10
ENDBRANCH   1   9
BRANCH   6  26
HETATM   26  C   UNL     1      31.304  44.967   7.061  1.00  0.00     0.040 A 
HETATM   27  C   UNL     1      31.732  44.030   6.137  1.00  0.00     0.024 A 
HETATM   28  N   UNL     1      32.055  44.543   4.891  1.00  0.00    -0.354 N 
HETATM   29  C   UNL     1      31.910  42.579   6.339  1.00  0.00     0.069 C 
HETATM   30  C   UNL     1      31.870  45.845   4.837  1.00  0.00     0.088 A 
ATOM     31  HN  UNL     1      32.395  43.980   4.111  1.00  0.00     0.166 HD
HETATM   32  S   UNL     1      31.261  46.508   6.301  1.00  0.00    -0.071 SA
BRANCH  30  33
HETATM   33  C   UNL     1      32.159  46.701   3.659  1.00  0.00     0.124 C 
HETATM   34  C   UNL     1      33.660  46.748   3.457  1.00  0.00     0.055 C 
BRANCH  33  35
HETATM   35  C   UNL     1      31.512  46.154   2.406  1.00  0.00     0.208 C 
BRANCH  35  36
HETATM   36  O   UNL     1      30.095  46.141   2.530  1.00  0.00    -0.397 OA
ATOM     37  HO  UNL     1      29.689  45.797   1.743  1.00  0.00     0.209 HD
ENDBRANCH  35  36
ENDBRANCH  33  35
BRANCH  33  38
HETATM   38  O   UNL     1      31.751  48.059   3.841  1.00  0.00    -0.381 OA
ATOM     39  HO  UNL     1      31.936  48.607   3.087  1.00  0.00     0.211 HD
ENDBRANCH  33  38
ENDBRANCH  30  33
ENDBRANCH   6  26
TORSDOF 9
