REMARK  4 active torsions:
REMARK  status: ('A' for Active; 'I' for Inactive)
REMARK    1  A    between atoms: C_5  and  N_25 
REMARK    2  A    between atoms: C_10  and  C_24 
REMARK    3  A    between atoms: C_16  and  C_17 
REMARK    4  A    between atoms: C_17  and  O_30 
ROOT
HETATM    1  N   UNL     1     175.618  22.511  45.333  1.00  0.00    -0.202 N 
ATOM      2  HN  UNL     1     174.711  22.738  44.925  1.00  0.00     0.183 HD
HETATM    3  N   UNL     1     177.415  20.964  45.632  1.00  0.00    -0.191 N 
ATOM      4  HN  UNL     1     177.811  20.044  45.440  1.00  0.00     0.184 HD
HETATM    5  C   UNL     1     176.203  21.316  45.120  1.00  0.00     0.676 A 
HETATM    6  C   UNL     1     178.084  21.852  46.397  1.00  0.00     0.070 A 
HETATM    7  C   UNL     1     179.384  21.418  46.937  1.00  0.00     0.027 A 
HETATM    8  C   UNL     1     179.845  20.046  46.800  1.00  0.00     0.006 A 
HETATM    9  C   UNL     1     179.319  18.864  46.265  1.00  0.00     0.035 A 
HETATM   10  C   UNL     1     181.322  17.683  46.990  1.00  0.00     0.023 A 
HETATM   11  C   UNL     1     181.093  19.985  47.456  1.00  0.00     0.043 A 
HETATM   12  C   UNL     1     179.600  24.495  47.257  1.00  0.00     0.011 C 
HETATM   13  C   UNL     1     178.145  24.149  47.534  1.00  0.00     0.042 C 
HETATM   14  C   UNL     1     181.854  18.825  47.532  1.00  0.00     0.032 A 
HETATM   15  C   UNL     1     180.380  22.110  47.603  1.00  0.00     0.023 A 
HETATM   16  C   UNL     1     180.480  23.538  48.030  1.00  0.00     0.058 C 
HETATM   17  C   UNL     1     177.501  23.105  46.652  1.00  0.00    -0.014 A 
HETATM   18  C   UNL     1     176.271  23.382  46.097  1.00  0.00     0.115 A 
HETATM   19  C   UNL     1     180.084  17.693  46.340  1.00  0.00     0.018 A 
HETATM   20  N   UNL     1     181.383  21.238  47.919  1.00  0.00    -0.358 N 
ATOM     21  HN  UNL     1     182.230  21.487  48.429  1.00  0.00     0.166 HD
ENDROOT
BRANCH  19  22
HETATM   22  C   UNL     1     179.639  16.460  45.765  1.00  0.00    -0.064 C 
HETATM   23  C   UNL     1     179.285  15.447  45.247  1.00  0.00    -0.064 C 
BRANCH  23  24
HETATM   24  C   UNL     1     178.824  14.183  44.665  1.00  0.00     0.114 C 
HETATM   25  C   UNL     1     178.995  14.201  43.156  1.00  0.00     0.060 C 
HETATM   26  C   UNL     1     177.381  13.910  45.045  1.00  0.00     0.060 C 
BRANCH  24  27
HETATM   27  O   UNL     1     179.634  13.116  45.192  1.00  0.00    -0.378 OA
ATOM     28  HO  UNL     1     179.335  12.297  44.815  1.00  0.00     0.211 HD
ENDBRANCH  24  27
ENDBRANCH  23  24
ENDBRANCH  19  22
BRANCH   5  29
HETATM   29  N   UNL     1     175.532  20.427  44.378  1.00  0.00    -0.234 N 
ATOM     30  HN2 UNL     1     174.624  20.691  43.995  1.00  0.00     0.174 HD
ATOM     31  HN1 UNL     1     175.975  19.522  44.217  1.00  0.00     0.174 HD
ENDBRANCH   5  29
TORSDOF 4
