REMARK  17 active torsions:
REMARK  status: ('A' for Active; 'I' for Inactive)
REMARK    1  A    between atoms: C_1  and  C_19 
REMARK    2  A    between atoms: C_2  and  N_32 
REMARK    3  A    between atoms: C_5  and  O_35 
REMARK    4  A    between atoms: C_7  and  O_37 
REMARK    5  A    between atoms: C_8  and  O_41 
REMARK    6  A    between atoms: C_10  and  O_42 
REMARK    7  A    between atoms: C_11  and  O_45 
REMARK    8  A    between atoms: C_13  and  C_16 
REMARK    9  A    between atoms: C_14  and  C_17 
REMARK   10  A    between atoms: C_16  and  O_49 
REMARK   11  A    between atoms: C_17  and  O_50 
REMARK   12  A    between atoms: C_18  and  N_27 
REMARK   13  A    between atoms: C_19  and  O_41 
REMARK   14  A    between atoms: O_44  and  P_52 
REMARK   15  A    between atoms: O_44  and  P_53 
REMARK   16  A    between atoms: O_49  and  P_52 
REMARK   17  A    between atoms: O_50  and  P_53 
ROOT
HETATM    1  O   UNL     1      -3.936   6.237   7.431  1.00  0.00    -0.624 OA
HETATM    2  O   UNL     1      -3.068   3.978   6.531  1.00  0.00    -0.624 OA
HETATM    3  P   UNL     1      -3.420   4.878   7.671  1.00  0.00     0.417 P 
ENDROOT
BRANCH   3   4
HETATM    4  O   UNL     1      -4.506   4.033   8.468  1.00  0.00    -0.287 OA
BRANCH   4   5
HETATM    5  C   UNL     1      -5.275   4.594   9.539  1.00  0.00     0.216 C 
BRANCH   5   6
HETATM    6  C   UNL     1      -6.133   3.476  10.131  1.00  0.00     0.180 C 
HETATM    7  O   UNL     1      -6.749   3.983  11.347  1.00  0.00    -0.353 OA
HETATM    8  C   UNL     1      -8.121   3.459  11.385  1.00  0.00     0.262 C 
HETATM    9  C   UNL     1      -8.526   3.600   9.936  1.00  0.00     0.198 C 
HETATM   10  C   UNL     1      -7.262   3.105   9.195  1.00  0.00     0.182 C 
BRANCH   8  11
HETATM   11  N   UNL     1      -8.671   4.604  12.245  1.00  0.00    -0.297 N 
HETATM   12  C   UNL     1      -8.917   4.437  13.556  1.00  0.00     0.142 A 
HETATM   13  N   UNL     1      -8.872   3.303  14.300  1.00  0.00    -0.336 N 
HETATM   14  C   UNL     1      -9.298   5.606  14.084  1.00  0.00     0.122 A 
HETATM   15  C   UNL     1      -9.238   3.341  15.626  1.00  0.00     0.183 A 
ATOM     16  HN  UNL     1      -8.568   2.426  13.878  1.00  0.00     0.168 HD
HETATM   17  N   UNL     1      -9.610   4.565  16.176  1.00  0.00    -0.337 N 
HETATM   18  C   UNL     1      -9.642   5.638  15.396  1.00  0.00     0.131 A 
ATOM     19  HN  UNL     1      -9.854   4.636  17.164  1.00  0.00     0.168 HD
HETATM   20  N   UNL     1      -9.243   6.527  13.073  1.00  0.00    -0.346 N 
HETATM   21  C   UNL     1      -8.819   5.903  11.961  1.00  0.00     0.188 A 
ATOM     22  HN  UNL     1      -9.482   7.516  13.150  1.00  0.00     0.167 HD
BRANCH  18  23
HETATM   23  N   UNL     1     -10.008   6.780  15.939  1.00  0.00    -0.383 N 
ATOM     24  HN2 UNL     1     -10.267   6.804  16.925  1.00  0.00     0.157 HD
ATOM     25  HN1 UNL     1     -10.033   7.605  15.339  1.00  0.00     0.157 HD
ENDBRANCH  18  23
ENDBRANCH   8  11
BRANCH   9  26
HETATM   26  O   UNL     1      -9.616   2.718   9.731  1.00  0.00    -0.388 OA
ATOM     27  HO  UNL     1     -10.392   3.022  10.186  1.00  0.00     0.210 HD
ENDBRANCH   9  26
BRANCH  10  28
HETATM   28  O   UNL     1      -7.254   1.693   9.076  1.00  0.00    -0.390 OA
ATOM     29  HO  UNL     1      -6.478   1.389   8.621  1.00  0.00     0.210 HD
ENDBRANCH  10  28
ENDBRANCH   5   6
ENDBRANCH   4   5
ENDBRANCH   3   4
BRANCH   3  30
HETATM   30  O   UNL     1      -2.191   5.155   8.704  1.00  0.00    -0.180 OA
BRANCH  30  31
HETATM   31  P   UNL     1      -1.001   4.189   9.031  1.00  0.00     0.417 P 
HETATM   32  O   UNL     1      -0.358   4.685  10.319  1.00  0.00    -0.624 OA
HETATM   33  O   UNL     1      -1.492   2.789   8.952  1.00  0.00    -0.624 OA
BRANCH  31  34
HETATM   34  O   UNL     1       0.040   4.590   7.856  1.00  0.00    -0.287 OA
BRANCH  34  35
HETATM   35  C   UNL     1       1.390   4.074   7.781  1.00  0.00     0.216 C 
BRANCH  35  36
HETATM   36  C   UNL     1       2.230   5.109   7.028  1.00  0.00     0.180 C 
HETATM   37  O   UNL     1       1.483   5.384   5.850  1.00  0.00    -0.349 OA
HETATM   38  C   UNL     1       2.052   6.689   5.358  1.00  0.00     0.289 C 
HETATM   39  C   UNL     1       2.519   7.467   6.597  1.00  0.00     0.218 C 
HETATM   40  C   UNL     1       2.160   6.457   7.736  1.00  0.00     0.183 C 
BRANCH  38  41
HETATM   41  O   UNL     1       1.115   7.470   4.643  1.00  0.00    -0.368 OA
ATOM     42  HO  UNL     1       0.826   6.989   3.877  1.00  0.00     0.212 HD
ENDBRANCH  38  41
BRANCH  39  43
HETATM   43  O   UNL     1       3.913   7.686   6.431  1.00  0.00    -0.304 OA
BRANCH  43  44
HETATM   44  C   UNL     1       4.374   8.757   7.131  1.00  0.00     0.293 C 
HETATM   45  O   UNL     1       3.669   9.405   7.893  1.00  0.00    -0.259 OA
BRANCH  44  46
HETATM   46  C   UNL     1       5.732   9.054   7.030  1.00  0.00     0.039 A 
HETATM   47  C   UNL     1       6.551   8.222   6.293  1.00  0.00     0.017 A 
HETATM   48  C   UNL     1       7.908   8.503   6.175  1.00  0.00     0.001 A 
HETATM   49  C   UNL     1       8.431   9.600   6.814  1.00  0.00     0.000 A 
HETATM   50  C   UNL     1       7.616  10.462   7.584  1.00  0.00     0.001 A 
HETATM   51  C   UNL     1       6.242  10.169   7.689  1.00  0.00     0.017 A 
ENDBRANCH  44  46
ENDBRANCH  43  44
ENDBRANCH  39  43
BRANCH  40  52
HETATM   52  O   UNL     1       3.113   6.557   8.749  1.00  0.00    -0.390 OA
ATOM     53  HO  UNL     1       2.895   5.944   9.441  1.00  0.00     0.210 HD
ENDBRANCH  40  52
ENDBRANCH  35  36
ENDBRANCH  34  35
ENDBRANCH  31  34
ENDBRANCH  30  31
ENDBRANCH   3  30
TORSDOF 17
