REMARK  19 active torsions:
REMARK  status: ('A' for Active; 'I' for Inactive)
REMARK    1  A    between atoms: C_1  and  C_19 
REMARK    2  A    between atoms: C_2  and  N_30 
REMARK    3  A    between atoms: C_5  and  O_33 
REMARK    4  A    between atoms: C_7  and  O_34 
REMARK    5  A    between atoms: C_8  and  O_37 
REMARK    6  A    between atoms: C_10  and  O_38 
REMARK    7  A    between atoms: C_11  and  O_40 
REMARK    8  A    between atoms: C_13  and  C_16 
REMARK    9  A    between atoms: C_14  and  C_17 
REMARK   10  A    between atoms: C_16  and  O_43 
REMARK   11  A    between atoms: C_17  and  O_44 
REMARK   12  A    between atoms: C_18  and  N_27 
REMARK   13  A    between atoms: C_19  and  O_37 
REMARK   14  A    between atoms: O_35  and  P_46 
REMARK   15  A    between atoms: O_36  and  P_47 
REMARK   16  A    between atoms: O_39  and  P_46 
REMARK   17  A    between atoms: O_39  and  P_47 
REMARK   18  A    between atoms: O_43  and  P_46 
REMARK   19  A    between atoms: O_44  and  P_47 
ROOT
HETATM    1  O   UNL     1      -0.799   1.980  -4.685  1.00  0.00    -0.631 OA
HETATM    2  P   UNL     1      -1.824   2.273  -3.615  1.00  0.00     0.401 P 
ENDROOT
BRANCH   2   3
HETATM    3  O   UNL     1      -2.482   3.807  -3.906  1.00  0.00    -0.307 OA
HETATM    4  H   UNL     1      -3.080   3.983  -3.140  1.00  0.00     0.222 HD
ENDBRANCH   2   3
BRANCH   2   5
HETATM    5  O   UNL     1      -3.064   1.111  -3.739  1.00  0.00    -0.195 OA
BRANCH   5   6
HETATM    6  P   UNL     1      -3.667   0.811  -2.175  1.00  0.00     0.401 P 
HETATM    7  O   UNL     1      -4.970   0.052  -2.292  1.00  0.00    -0.631 OA
BRANCH   6   8
HETATM    8  O   UNL     1      -3.969   2.266  -1.362  1.00  0.00    -0.307 OA
HETATM    9  H   UNL     1      -4.122   2.004  -0.419  1.00  0.00     0.222 HD
ENDBRANCH   6   8
BRANCH   6  10
HETATM   10  O   UNL     1      -2.550  -0.114  -1.276  1.00  0.00    -0.294 OA
BRANCH  10  11
HETATM   11  C   UNL     1      -2.248  -1.280  -2.008  1.00  0.00     0.215 C 
BRANCH  11  12
HETATM   12  C   UNL     1      -1.323  -2.191  -1.194  1.00  0.00     0.180 C 
HETATM   13  C   UNL     1      -1.967  -2.646   0.128  1.00  0.00     0.183 C 
HETATM   14  C   UNL     1      -1.050  -2.048   1.173  1.00  0.00     0.218 C 
HETATM   15  C   UNL     1       0.236  -1.848   0.405  1.00  0.00     0.289 C 
HETATM   16  O   UNL     1      -0.114  -1.517  -0.915  1.00  0.00    -0.349 OA
BRANCH  13  17
HETATM   17  O   UNL     1      -1.964  -4.052   0.191  1.00  0.00    -0.390 OA
HETATM   18  H   UNL     1      -2.666  -4.314   0.845  1.00  0.00     0.210 HD
ENDBRANCH  13  17
BRANCH  14  19
HETATM   19  O   UNL     1      -0.843  -2.909   2.292  1.00  0.00    -0.304 OA
BRANCH  19  20
HETATM   20  C   UNL     1      -1.766  -3.036   3.338  1.00  0.00     0.293 C 
HETATM   21  O   UNL     1      -2.839  -2.370   3.320  1.00  0.00    -0.259 OA
BRANCH  20  22
HETATM   22  C   UNL     1      -1.477  -3.947   4.467  1.00  0.00     0.039 A 
HETATM   23  C   UNL     1      -2.364  -4.044   5.556  1.00  0.00     0.017 A 
HETATM   24  C   UNL     1      -2.077  -4.894   6.629  1.00  0.00     0.001 A 
HETATM   25  C   UNL     1      -0.911  -5.663   6.621  1.00  0.00     0.000 A 
HETATM   26  C   UNL     1      -0.029  -5.582   5.541  1.00  0.00     0.001 A 
HETATM   27  C   UNL     1      -0.306  -4.727   4.469  1.00  0.00     0.017 A 
ENDBRANCH  20  22
ENDBRANCH  19  20
ENDBRANCH  14  19
BRANCH  15  28
HETATM   28  O   UNL     1       0.980  -0.810   0.981  1.00  0.00    -0.368 OA
HETATM   29  H   UNL     1       1.890  -0.871   0.592  1.00  0.00     0.212 HD
ENDBRANCH  15  28
ENDBRANCH  11  12
ENDBRANCH  10  11
ENDBRANCH   6  10
ENDBRANCH   5   6
ENDBRANCH   2   5
BRANCH   2  30
HETATM   30  O   UNL     1      -1.067   2.236  -2.085  1.00  0.00    -0.294 OA
BRANCH  30  31
HETATM   31  C   UNL     1      -0.099   3.256  -2.039  1.00  0.00     0.215 C 
BRANCH  31  32
HETATM   32  C   UNL     1       0.557   3.267  -0.653  1.00  0.00     0.180 C 
HETATM   33  C   UNL     1       1.676   4.313  -0.571  1.00  0.00     0.182 C 
HETATM   34  C   UNL     1       2.922   3.486  -0.772  1.00  0.00     0.198 C 
HETATM   35  C   UNL     1       2.498   2.120  -0.249  1.00  0.00     0.262 C 
HETATM   36  O   UNL     1       1.097   1.989  -0.379  1.00  0.00    -0.353 OA
BRANCH  33  37
HETATM   37  O   UNL     1       1.669   4.969   0.677  1.00  0.00    -0.390 OA
HETATM   38  H   UNL     1       1.709   4.279   1.392  1.00  0.00     0.210 HD
ENDBRANCH  33  37
BRANCH  34  39
HETATM   39  O   UNL     1       4.010   4.006  -0.055  1.00  0.00    -0.388 OA
HETATM   40  H   UNL     1       4.818   3.538  -0.394  1.00  0.00     0.210 HD
ENDBRANCH  34  39
BRANCH  35  41
HETATM   41  N   UNL     1       3.185   1.047  -0.971  1.00  0.00    -0.297 N 
HETATM   42  C   UNL     1       2.771   0.319  -2.017  1.00  0.00     0.142 A 
HETATM   43  C   UNL     1       3.737  -0.559  -2.369  1.00  0.00     0.122 A 
HETATM   44  N   UNL     1       1.578   0.384  -2.656  1.00  0.00    -0.336 N 
HETATM   45  C   UNL     1       3.525  -1.441  -3.423  1.00  0.00     0.131 A 
HETATM   46  N   UNL     1       4.813  -0.422  -1.574  1.00  0.00    -0.346 N 
HETATM   47  N   UNL     1       2.322  -1.379  -4.067  1.00  0.00    -0.337 N 
HETATM   48  C   UNL     1       1.357  -0.480  -3.693  1.00  0.00     0.183 A 
ATOM     49  HN  UNL     1       2.138  -2.015  -4.843  1.00  0.00     0.168 HD
HETATM   50  C   UNL     1       4.436   0.576  -0.729  1.00  0.00     0.188 A 
ATOM     51  HN  UNL     1       5.693  -0.938  -1.598  1.00  0.00     0.167 HD
ATOM     52  HN  UNL     1       0.866   1.057  -2.372  1.00  0.00     0.168 HD
BRANCH  45  53
HETATM   53  N   UNL     1       4.516  -2.385  -3.826  1.00  0.00    -0.383 N 
HETATM   54  H   UNL     1       4.325  -3.041  -4.613  1.00  0.00     0.157 HD
HETATM   55  H   UNL     1       5.433  -2.446  -3.330  1.00  0.00     0.157 HD
ENDBRANCH  45  53
ENDBRANCH  35  41
ENDBRANCH  31  32
ENDBRANCH  30  31
ENDBRANCH   2  30
TORSDOF 19
