REMARK  10 active torsions:
REMARK  status: ('A' for Active; 'I' for Inactive)
REMARK    1  A    between atoms: C_1  and  C_17 
REMARK    2  A    between atoms: C_2  and  C_12 
REMARK    3  A    between atoms: C_6  and  O_15 
REMARK    4  A    between atoms: P_8  and  O_11 
REMARK    5  A    between atoms: O_11  and  C_12 
REMARK    6  A    between atoms: C_17  and  N_18 
REMARK    7  A    between atoms: N_18  and  C_20 
REMARK    8  A    between atoms: C_20  and  C_21 
REMARK    9  A    between atoms: C_21  and  C_22 
REMARK   10  A    between atoms: C_22  and  S_23 
ROOT
HETATM    1  C   UNL     1      25.451 -11.258  57.267  1.00  0.00     0.024 A 
HETATM    2  C   UNL     1      25.892 -10.431  56.208  1.00  0.00    -0.004 A 
HETATM    3  C   UNL     1      25.255 -10.480  54.965  1.00  0.00     0.098 A 
HETATM    4  N   UNL     1      24.209 -11.297  54.755  1.00  0.00    -0.367 N 
ATOM      5  HN  UNL     1      23.760 -11.308  53.839  1.00  0.00     0.165 HD
HETATM    6  C   UNL     1      24.353 -12.121  56.982  1.00  0.00     0.100 A 
HETATM    7  C   UNL     1      23.734 -12.112  55.740  1.00  0.00     0.039 A 
HETATM    8  C   UNL     1      22.575 -13.003  55.367  1.00  0.00     0.071 C 
ENDROOT
BRANCH   1   9
HETATM    9  C   UNL     1      26.091 -11.269  58.521  1.00  0.00     0.102 C 
BRANCH   9  10
HETATM   10  N   UNL     1      25.504 -11.845  59.546  1.00  0.00    -0.378 N 
ATOM     11  HN  UNL     1      24.564 -12.217  59.410  1.00  0.00     0.164 HD
BRANCH  10  12
HETATM   12  C   UNL     1      26.113 -11.988  60.873  1.00  0.00     0.061 C 
BRANCH  12  13
HETATM   13  C   UNL     1      27.563 -11.616  61.143  1.00  0.00     0.054 C 
BRANCH  13  14
HETATM   14  C   UNL     1      28.125 -12.017  62.479  1.00  0.00     0.078 C 
BRANCH  14  15
HETATM   15  S   UNL     1      28.354 -13.841  62.314  1.00  0.00    -0.173 SA
HETATM   16  C   UNL     1      29.767 -13.990  61.233  1.00  0.00     0.089 C 
ENDBRANCH  14  15
ENDBRANCH  13  14
ENDBRANCH  12  13
ENDBRANCH  10  12
ENDBRANCH   9  10
ENDBRANCH   1   9
BRANCH   2  17
HETATM   17  C   UNL     1      27.086  -9.476  56.309  1.00  0.00     0.223 C 
BRANCH  17  18
HETATM   18  O   UNL     1      28.244 -10.281  56.373  1.00  0.00    -0.278 OA
BRANCH  18  19
HETATM   19  P   UNL     1      29.554  -9.673  57.128  1.00  0.00     0.422 P 
HETATM   20  O   UNL     1      29.068  -9.351  58.478  1.00  0.00    -0.617 OA
HETATM   21  O   UNL     1      29.921  -8.434  56.375  1.00  0.00    -0.617 OA
HETATM   22  O   UNL     1      30.443 -10.806  57.022  1.00  0.00    -0.617 OA
ENDBRANCH  18  19
ENDBRANCH  17  18
ENDBRANCH   2  17
BRANCH   6  23
HETATM   23  O   UNL     1      23.840 -12.954  57.924  1.00  0.00    -0.358 OA
ATOM     24  HO  UNL     1      23.108 -13.529  57.734  1.00  0.00     0.217 HD
ENDBRANCH   6  23
TORSDOF 10
