MODEL 1
REMARK VINA RESULT:    -9.311      0.000      0.000
REMARK INTER + INTRA:         -14.613
REMARK INTER:                 -13.393
REMARK INTRA:                  -1.219
REMARK UNBOUND:                -1.219
REMARK  8 active torsions:
REMARK  status: ('A' for Active; 'I' for Inactive)
REMARK    1  A    between atoms: C_1  and  N_18 
REMARK    2  A    between atoms: C_5  and  C_6 
REMARK    3  A    between atoms: C_7  and  O_21 
REMARK    4  A    between atoms: C_10  and  S_26 
REMARK    5  A    between atoms: C_11  and  C_12 
REMARK    6  A    between atoms: C_12  and  C_13 
REMARK    7  A    between atoms: C_13  and  C_14 
REMARK    8  A    between atoms: N_18  and  S_26 
ROOT
HETATM    1  O   UNL     1      -0.910   7.367  19.224  1.00  0.00    -0.200 OA
HETATM    2  O   UNL     1      -1.489   5.078  18.623  1.00  0.00    -0.200 OA
HETATM    3  S   UNL     1      -0.898   6.352  18.219  1.00  0.00     0.263 S 
ENDROOT
BRANCH   3   4
HETATM    4  C   UNL     1      -1.610   6.939  16.794  1.00  0.00     0.081 A 
HETATM    5  C   UNL     1      -2.302   8.139  16.667  1.00  0.00     0.046 A 
HETATM    6  C   UNL     1      -2.864   8.600  15.493  1.00  0.00     0.075 A 
HETATM    7  C   UNL     1      -2.694   7.814  14.397  1.00  0.00     0.082 A 
HETATM    8  C   UNL     1      -2.021   6.636  14.394  1.00  0.00     0.039 A 
HETATM    9  C   UNL     1      -1.483   6.224  15.593  1.00  0.00     0.028 A 
BRANCH   6  10
HETATM   10  C   UNL     1      -3.589   9.932  15.389  1.00  0.00     0.212 C 
HETATM   11  O   UNL     1      -4.401  10.228  16.303  1.00  0.00    -0.644 OA
HETATM   12  O   UNL     1      -3.405  10.671  14.352  1.00  0.00    -0.644 OA
ENDBRANCH   6  10
BRANCH   7  13
HETATM   13  O   UNL     1      -3.237   8.240  13.179  1.00  0.00    -0.360 OA
ATOM     14  HO  UNL     1      -4.109   7.944  12.942  1.00  0.00     0.217 HD
ENDBRANCH   7  13
ENDBRANCH   3   4
BRANCH   3  15
HETATM   15  N   UNL     1       0.615   6.019  17.864  1.00  0.00    -0.281 N 
ATOM     16  HN  UNL     1       0.923   5.076  18.096  1.00  0.00     0.179 HD
BRANCH  15  17
HETATM   17  C   UNL     1       1.573   6.835  17.283  1.00  0.00     0.042 A 
HETATM   18  C   UNL     1       2.399   6.387  16.281  1.00  0.00     0.030 A 
HETATM   19  C   UNL     1       3.407   7.184  15.744  1.00  0.00     0.009 A 
HETATM   20  C   UNL     1       3.618   8.477  16.160  1.00  0.00    -0.058 A 
HETATM   21  C   UNL     1       2.787   8.950  17.179  1.00  0.00     0.009 A 
HETATM   22  C   UNL     1       1.773   8.134  17.713  1.00  0.00     0.030 A 
BRANCH  20  23
HETATM   23  C   UNL     1       4.722   9.300  15.580  1.00  0.00     0.038 C 
BRANCH  23  24
HETATM   24  C   UNL     1       5.863   9.560  16.549  1.00  0.00     0.004 C 
BRANCH  24  25
HETATM   25  C   UNL     1       6.682   8.335  17.050  1.00  0.00    -0.004 C 
HETATM   26  C   UNL     1       6.560   8.075  18.621  1.00  0.00     0.005 C 
ENDBRANCH  24  25
ENDBRANCH  23  24
ENDBRANCH  20  23
ENDBRANCH  15  17
ENDBRANCH   3  15
TORSDOF 8
ENDMDL
MODEL 2
REMARK VINA RESULT:    -8.833      1.587      2.262
REMARK INTER + INTRA:         -13.925
REMARK INTER:                 -12.948
REMARK INTRA:                  -0.977
REMARK UNBOUND:                -1.219
REMARK  8 active torsions:
REMARK  status: ('A' for Active; 'I' for Inactive)
REMARK    1  A    between atoms: C_1  and  N_18 
REMARK    2  A    between atoms: C_5  and  C_6 
REMARK    3  A    between atoms: C_7  and  O_21 
REMARK    4  A    between atoms: C_10  and  S_26 
REMARK    5  A    between atoms: C_11  and  C_12 
REMARK    6  A    between atoms: C_12  and  C_13 
REMARK    7  A    between atoms: C_13  and  C_14 
REMARK    8  A    between atoms: N_18  and  S_26 
ROOT
HETATM    1  O   UNL     1       0.531   6.712  18.604  1.00  0.00    -0.200 OA
HETATM    2  O   UNL     1       1.411   6.004  16.445  1.00  0.00    -0.200 OA
HETATM    3  S   UNL     1       0.626   6.976  17.204  1.00  0.00     0.263 S 
ENDROOT
BRANCH   3   4
HETATM    4  C   UNL     1      -0.926   7.167  16.543  1.00  0.00     0.081 A 
HETATM    5  C   UNL     1      -1.802   8.213  16.817  1.00  0.00     0.046 A 
HETATM    6  C   UNL     1      -3.057   8.351  16.259  1.00  0.00     0.075 A 
HETATM    7  C   UNL     1      -3.427   7.394  15.368  1.00  0.00     0.082 A 
HETATM    8  C   UNL     1      -2.651   6.340  15.007  1.00  0.00     0.039 A 
HETATM    9  C   UNL     1      -1.410   6.252  15.596  1.00  0.00     0.028 A 
BRANCH   6  10
HETATM   10  C   UNL     1      -3.973   9.525  16.563  1.00  0.00     0.212 C 
HETATM   11  O   UNL     1      -4.323  10.257  15.601  1.00  0.00    -0.644 OA
HETATM   12  O   UNL     1      -4.301   9.772  17.782  1.00  0.00    -0.644 OA
ENDBRANCH   6  10
BRANCH   7  13
HETATM   13  O   UNL     1      -4.688   7.492  14.767  1.00  0.00    -0.360 OA
ATOM     14  HO  UNL     1      -5.429   7.080  15.195  1.00  0.00     0.217 HD
ENDBRANCH   7  13
ENDBRANCH   3   4
BRANCH   3  15
HETATM   15  N   UNL     1       1.373   8.365  17.007  1.00  0.00    -0.281 N 
ATOM     16  HN  UNL     1       0.772   9.160  16.794  1.00  0.00     0.179 HD
BRANCH  15  17
HETATM   17  C   UNL     1       2.729   8.644  17.086  1.00  0.00     0.042 A 
HETATM   18  C   UNL     1       3.345   8.928  18.281  1.00  0.00     0.030 A 
HETATM   19  C   UNL     1       4.691   9.275  18.353  1.00  0.00     0.009 A 
HETATM   20  C   UNL     1       5.495   9.326  17.238  1.00  0.00    -0.058 A 
HETATM   21  C   UNL     1       4.885   9.041  16.014  1.00  0.00     0.009 A 
HETATM   22  C   UNL     1       3.524   8.692  15.956  1.00  0.00     0.030 A 
BRANCH  20  23
HETATM   23  C   UNL     1       6.930   9.724  17.344  1.00  0.00     0.038 C 
BRANCH  23  24
HETATM   24  C   UNL     1       7.896   8.553  17.281  1.00  0.00     0.004 C 
BRANCH  24  25
HETATM   25  C   UNL     1       8.695   8.202  18.570  1.00  0.00    -0.004 C 
HETATM   26  C   UNL     1       7.997   7.091  19.480  1.00  0.00     0.005 C 
ENDBRANCH  24  25
ENDBRANCH  23  24
ENDBRANCH  20  23
ENDBRANCH  15  17
ENDBRANCH   3  15
TORSDOF 8
ENDMDL
MODEL 3
REMARK VINA RESULT:    -8.587      1.079      2.334
REMARK INTER + INTRA:         -13.571
REMARK INTER:                 -12.211
REMARK INTRA:                  -1.360
REMARK UNBOUND:                -1.219
REMARK  8 active torsions:
REMARK  status: ('A' for Active; 'I' for Inactive)
REMARK    1  A    between atoms: C_1  and  N_18 
REMARK    2  A    between atoms: C_5  and  C_6 
REMARK    3  A    between atoms: C_7  and  O_21 
REMARK    4  A    between atoms: C_10  and  S_26 
REMARK    5  A    between atoms: C_11  and  C_12 
REMARK    6  A    between atoms: C_12  and  C_13 
REMARK    7  A    between atoms: C_13  and  C_14 
REMARK    8  A    between atoms: N_18  and  S_26 
ROOT
HETATM    1  O   UNL     1      -1.342   7.445  19.165  1.00  0.00    -0.200 OA
HETATM    2  O   UNL     1      -1.631   5.123  18.486  1.00  0.00    -0.200 OA
HETATM    3  S   UNL     1      -1.073   6.440  18.186  1.00  0.00     0.263 S 
ENDROOT
BRANCH   3   4
HETATM    4  C   UNL     1      -1.557   6.982  16.652  1.00  0.00     0.081 A 
HETATM    5  C   UNL     1      -1.258   6.364  15.441  1.00  0.00     0.046 A 
HETATM    6  C   UNL     1      -1.672   6.819  14.206  1.00  0.00     0.075 A 
HETATM    7  C   UNL     1      -2.441   7.940  14.204  1.00  0.00     0.082 A 
HETATM    8  C   UNL     1      -2.813   8.616  15.321  1.00  0.00     0.039 A 
HETATM    9  C   UNL     1      -2.371   8.118  16.526  1.00  0.00     0.028 A 
BRANCH   6  10
HETATM   10  C   UNL     1      -1.349   6.099  12.907  1.00  0.00     0.212 C 
HETATM   11  O   UNL     1      -0.144   6.050  12.549  1.00  0.00    -0.644 OA
HETATM   12  O   UNL     1      -2.308   5.629  12.189  1.00  0.00    -0.644 OA
ENDBRANCH   6  10
BRANCH   7  13
HETATM   13  O   UNL     1      -2.894   8.439  12.977  1.00  0.00    -0.360 OA
ATOM     14  HO  UNL     1      -3.826   8.586  12.863  1.00  0.00     0.217 HD
ENDBRANCH   7  13
ENDBRANCH   3   4
BRANCH   3  15
HETATM   15  N   UNL     1       0.499   6.224  18.113  1.00  0.00    -0.281 N 
ATOM     16  HN  UNL     1       0.855   5.409  18.612  1.00  0.00     0.179 HD
BRANCH  15  17
HETATM   17  C   UNL     1       1.455   6.990  17.463  1.00  0.00     0.042 A 
HETATM   18  C   UNL     1       2.194   6.496  16.416  1.00  0.00     0.030 A 
HETATM   19  C   UNL     1       3.201   7.241  15.807  1.00  0.00     0.009 A 
HETATM   20  C   UNL     1       3.498   8.526  16.195  1.00  0.00    -0.058 A 
HETATM   21  C   UNL     1       2.756   9.045  17.260  1.00  0.00     0.009 A 
HETATM   22  C   UNL     1       1.742   8.281  17.866  1.00  0.00     0.030 A 
BRANCH  20  23
HETATM   23  C   UNL     1       4.599   9.292  15.539  1.00  0.00     0.038 C 
BRANCH  23  24
HETATM   24  C   UNL     1       5.773   9.584  16.458  1.00  0.00     0.004 C 
BRANCH  24  25
HETATM   25  C   UNL     1       6.520   8.372  17.086  1.00  0.00    -0.004 C 
HETATM   26  C   UNL     1       6.635   8.438  18.678  1.00  0.00     0.005 C 
ENDBRANCH  24  25
ENDBRANCH  23  24
ENDBRANCH  20  23
ENDBRANCH  15  17
ENDBRANCH   3  15
TORSDOF 8
ENDMDL
MODEL 4
REMARK VINA RESULT:    -8.466      1.979      3.096
REMARK INTER + INTRA:         -13.397
REMARK INTER:                 -12.446
REMARK INTRA:                  -0.952
REMARK UNBOUND:                -1.219
REMARK  8 active torsions:
REMARK  status: ('A' for Active; 'I' for Inactive)
REMARK    1  A    between atoms: C_1  and  N_18 
REMARK    2  A    between atoms: C_5  and  C_6 
REMARK    3  A    between atoms: C_7  and  O_21 
REMARK    4  A    between atoms: C_10  and  S_26 
REMARK    5  A    between atoms: C_11  and  C_12 
REMARK    6  A    between atoms: C_12  and  C_13 
REMARK    7  A    between atoms: C_13  and  C_14 
REMARK    8  A    between atoms: N_18  and  S_26 
ROOT
HETATM    1  O   UNL     1       0.919   6.301  17.806  1.00  0.00    -0.200 OA
HETATM    2  O   UNL     1       1.475   5.883  15.471  1.00  0.00    -0.200 OA
HETATM    3  S   UNL     1       0.820   6.745  16.453  1.00  0.00     0.263 S 
ENDROOT
BRANCH   3   4
HETATM    4  C   UNL     1      -0.807   7.015  16.049  1.00  0.00     0.081 A 
HETATM    5  C   UNL     1      -1.534   6.312  15.093  1.00  0.00     0.046 A 
HETATM    6  C   UNL     1      -2.861   6.545  14.790  1.00  0.00     0.075 A 
HETATM    7  C   UNL     1      -3.479   7.520  15.507  1.00  0.00     0.082 A 
HETATM    8  C   UNL     1      -2.880   8.256  16.477  1.00  0.00     0.039 A 
HETATM    9  C   UNL     1      -1.556   7.983  16.736  1.00  0.00     0.028 A 
BRANCH   6  10
HETATM   10  C   UNL     1      -3.628   5.735  13.758  1.00  0.00     0.212 C 
HETATM   11  O   UNL     1      -4.340   6.364  12.932  1.00  0.00    -0.644 OA
HETATM   12  O   UNL     1      -3.584   4.450  13.803  1.00  0.00    -0.644 OA
ENDBRANCH   6  10
BRANCH   7  13
HETATM   13  O   UNL     1      -4.828   7.790  15.244  1.00  0.00    -0.360 OA
ATOM     14  HO  UNL     1      -5.216   7.437  14.452  1.00  0.00     0.217 HD
ENDBRANCH   7  13
ENDBRANCH   3   4
BRANCH   3  15
HETATM   15  N   UNL     1       1.552   8.150  16.334  1.00  0.00    -0.281 N 
ATOM     16  HN  UNL     1       0.978   8.917  15.985  1.00  0.00     0.179 HD
BRANCH  15  17
HETATM   17  C   UNL     1       2.865   8.478  16.640  1.00  0.00     0.042 A 
HETATM   18  C   UNL     1       3.235   8.900  17.893  1.00  0.00     0.030 A 
HETATM   19  C   UNL     1       4.539   9.294  18.183  1.00  0.00     0.009 A 
HETATM   20  C   UNL     1       5.542   9.256  17.243  1.00  0.00    -0.058 A 
HETATM   21  C   UNL     1       5.182   8.829  15.962  1.00  0.00     0.009 A 
HETATM   22  C   UNL     1       3.862   8.434  15.683  1.00  0.00     0.030 A 
BRANCH  20  23
HETATM   23  C   UNL     1       6.926   9.706  17.578  1.00  0.00     0.038 C 
BRANCH  23  24
HETATM   24  C   UNL     1       8.001   8.691  17.228  1.00  0.00     0.004 C 
BRANCH  24  25
HETATM   25  C   UNL     1       8.755   8.001  18.402  1.00  0.00    -0.004 C 
HETATM   26  C   UNL     1       7.792   7.315  19.475  1.00  0.00     0.005 C 
ENDBRANCH  24  25
ENDBRANCH  23  24
ENDBRANCH  20  23
ENDBRANCH  15  17
ENDBRANCH   3  15
TORSDOF 8
ENDMDL
MODEL 5
REMARK VINA RESULT:    -8.234      4.876      9.064
REMARK INTER + INTRA:         -13.063
REMARK INTER:                 -12.142
REMARK INTRA:                  -0.922
REMARK UNBOUND:                -1.219
REMARK  8 active torsions:
REMARK  status: ('A' for Active; 'I' for Inactive)
REMARK    1  A    between atoms: C_1  and  N_18 
REMARK    2  A    between atoms: C_5  and  C_6 
REMARK    3  A    between atoms: C_7  and  O_21 
REMARK    4  A    between atoms: C_10  and  S_26 
REMARK    5  A    between atoms: C_11  and  C_12 
REMARK    6  A    between atoms: C_12  and  C_13 
REMARK    7  A    between atoms: C_13  and  C_14 
REMARK    8  A    between atoms: N_18  and  S_26 
ROOT
HETATM    1  O   UNL     1       4.666   9.551  15.762  1.00  0.00    -0.200 OA
HETATM    2  O   UNL     1       5.366   7.326  15.057  1.00  0.00    -0.200 OA
HETATM    3  S   UNL     1       5.068   8.238  16.158  1.00  0.00     0.263 S 
ENDROOT
BRANCH   3   4
HETATM    4  C   UNL     1       6.364   8.334  17.250  1.00  0.00     0.081 A 
HETATM    5  C   UNL     1       7.286   9.373  17.327  1.00  0.00     0.046 A 
HETATM    6  C   UNL     1       8.327   9.433  18.231  1.00  0.00     0.075 A 
HETATM    7  C   UNL     1       8.420   8.400  19.109  1.00  0.00     0.082 A 
HETATM    8  C   UNL     1       7.568   7.344  19.144  1.00  0.00     0.039 A 
HETATM    9  C   UNL     1       6.550   7.336  18.218  1.00  0.00     0.028 A 
BRANCH   6  10
HETATM   10  C   UNL     1       9.297  10.601  18.302  1.00  0.00     0.212 C 
HETATM   11  O   UNL     1      10.101  10.752  17.346  1.00  0.00    -0.644 OA
HETATM   12  O   UNL     1       9.314  11.346  19.350  1.00  0.00    -0.644 OA
ENDBRANCH   6  10
BRANCH   7  13
HETATM   13  O   UNL     1       9.454   8.416  20.054  1.00  0.00    -0.360 OA
ATOM     14  HO  UNL     1      10.310   8.728  19.785  1.00  0.00     0.217 HD
ENDBRANCH   7  13
ENDBRANCH   3   4
BRANCH   3  15
HETATM   15  N   UNL     1       3.863   7.566  16.947  1.00  0.00    -0.281 N 
ATOM     16  HN  UNL     1       4.111   7.118  17.829  1.00  0.00     0.179 HD
BRANCH  15  17
HETATM   17  C   UNL     1       2.521   7.504  16.602  1.00  0.00     0.042 A 
HETATM   18  C   UNL     1       1.546   8.097  17.366  1.00  0.00     0.030 A 
HETATM   19  C   UNL     1       0.193   7.978  17.058  1.00  0.00     0.009 A 
HETATM   20  C   UNL     1      -0.249   7.287  15.954  1.00  0.00    -0.058 A 
HETATM   21  C   UNL     1       0.731   6.677  15.165  1.00  0.00     0.009 A 
HETATM   22  C   UNL     1       2.094   6.804  15.488  1.00  0.00     0.030 A 
BRANCH  20  23
HETATM   23  C   UNL     1      -1.707   7.158  15.662  1.00  0.00     0.038 C 
BRANCH  23  24
HETATM   24  C   UNL     1      -2.497   8.430  15.920  1.00  0.00     0.004 C 
BRANCH  24  25
HETATM   25  C   UNL     1      -3.255   9.068  14.720  1.00  0.00    -0.004 C 
HETATM   26  C   UNL     1      -2.722   8.590  13.292  1.00  0.00     0.005 C 
ENDBRANCH  24  25
ENDBRANCH  23  24
ENDBRANCH  20  23
ENDBRANCH  15  17
ENDBRANCH   3  15
TORSDOF 8
ENDMDL
MODEL 6
REMARK VINA RESULT:    -8.209      2.220      3.517
REMARK INTER + INTRA:         -13.028
REMARK INTER:                 -12.145
REMARK INTRA:                  -0.883
REMARK UNBOUND:                -1.219
REMARK  8 active torsions:
REMARK  status: ('A' for Active; 'I' for Inactive)
REMARK    1  A    between atoms: C_1  and  N_18 
REMARK    2  A    between atoms: C_5  and  C_6 
REMARK    3  A    between atoms: C_7  and  O_21 
REMARK    4  A    between atoms: C_10  and  S_26 
REMARK    5  A    between atoms: C_11  and  C_12 
REMARK    6  A    between atoms: C_12  and  C_13 
REMARK    7  A    between atoms: C_13  and  C_14 
REMARK    8  A    between atoms: N_18  and  S_26 
ROOT
HETATM    1  O   UNL     1      -2.063   6.250  17.040  1.00  0.00    -0.200 OA
HETATM    2  O   UNL     1       0.044   5.190  16.428  1.00  0.00    -0.200 OA
HETATM    3  S   UNL     1      -0.839   6.348  16.310  1.00  0.00     0.263 S 
ENDROOT
BRANCH   3   4
HETATM    4  C   UNL     1      -1.162   6.716  14.685  1.00  0.00     0.081 A 
HETATM    5  C   UNL     1      -0.730   5.981  13.584  1.00  0.00     0.046 A 
HETATM    6  C   UNL     1      -1.015   6.296  12.271  1.00  0.00     0.075 A 
HETATM    7  C   UNL     1      -1.790   7.394  12.070  1.00  0.00     0.082 A 
HETATM    8  C   UNL     1      -2.287   8.175  13.064  1.00  0.00     0.039 A 
HETATM    9  C   UNL     1      -1.970   7.815  14.354  1.00  0.00     0.028 A 
BRANCH   6  10
HETATM   10  C   UNL     1      -0.548   5.451  11.097  1.00  0.00     0.212 C 
HETATM   11  O   UNL     1       0.193   5.998  10.241  1.00  0.00    -0.644 OA
HETATM   12  O   UNL     1      -0.974   4.242  10.980  1.00  0.00    -0.644 OA
ENDBRANCH   6  10
BRANCH   7  13
HETATM   13  O   UNL     1      -2.116   7.752  10.756  1.00  0.00    -0.360 OA
ATOM     14  HO  UNL     1      -2.800   8.396  10.618  1.00  0.00     0.217 HD
ENDBRANCH   7  13
ENDBRANCH   3   4
BRANCH   3  15
HETATM   15  N   UNL     1      -0.009   7.572  16.893  1.00  0.00    -0.281 N 
ATOM     16  HN  UNL     1      -0.548   8.258  17.420  1.00  0.00     0.179 HD
BRANCH  15  17
HETATM   17  C   UNL     1       1.348   7.835  16.783  1.00  0.00     0.042 A 
HETATM   18  C   UNL     1       2.024   8.570  17.727  1.00  0.00     0.030 A 
HETATM   19  C   UNL     1       3.371   8.893  17.584  1.00  0.00     0.009 A 
HETATM   20  C   UNL     1       4.116   8.472  16.507  1.00  0.00    -0.058 A 
HETATM   21  C   UNL     1       3.443   7.723  15.537  1.00  0.00     0.009 A 
HETATM   22  C   UNL     1       2.082   7.405  15.694  1.00  0.00     0.030 A 
BRANCH  20  23
HETATM   23  C   UNL     1       5.553   8.853  16.371  1.00  0.00     0.038 C 
BRANCH  23  24
HETATM   24  C   UNL     1       6.138   9.488  17.621  1.00  0.00     0.004 C 
BRANCH  24  25
HETATM   25  C   UNL     1       7.447   8.875  18.199  1.00  0.00    -0.004 C 
HETATM   26  C   UNL     1       7.231   7.480  18.947  1.00  0.00     0.005 C 
ENDBRANCH  24  25
ENDBRANCH  23  24
ENDBRANCH  20  23
ENDBRANCH  15  17
ENDBRANCH   3  15
TORSDOF 8
ENDMDL
MODEL 7
REMARK VINA RESULT:    -8.181      4.303      6.109
REMARK INTER + INTRA:         -12.988
REMARK INTER:                 -11.925
REMARK INTRA:                  -1.063
REMARK UNBOUND:                -1.219
REMARK  8 active torsions:
REMARK  status: ('A' for Active; 'I' for Inactive)
REMARK    1  A    between atoms: C_1  and  N_18 
REMARK    2  A    between atoms: C_5  and  C_6 
REMARK    3  A    between atoms: C_7  and  O_21 
REMARK    4  A    between atoms: C_10  and  S_26 
REMARK    5  A    between atoms: C_11  and  C_12 
REMARK    6  A    between atoms: C_12  and  C_13 
REMARK    7  A    between atoms: C_13  and  C_14 
REMARK    8  A    between atoms: N_18  and  S_26 
ROOT
HETATM    1  O   UNL     1      -4.722   5.770  12.283  1.00  0.00    -0.200 OA
HETATM    2  O   UNL     1      -3.609   4.776  14.209  1.00  0.00    -0.200 OA
HETATM    3  S   UNL     1      -3.486   5.386  12.887  1.00  0.00     0.263 S 
ENDROOT
BRANCH   3   4
HETATM    4  C   UNL     1      -2.609   4.391  11.827  1.00  0.00     0.081 A 
HETATM    5  C   UNL     1      -1.426   4.738  11.181  1.00  0.00     0.046 A 
HETATM    6  C   UNL     1      -0.725   3.906  10.331  1.00  0.00     0.075 A 
HETATM    7  C   UNL     1      -1.239   2.662  10.148  1.00  0.00     0.082 A 
HETATM    8  C   UNL     1      -2.372   2.205  10.740  1.00  0.00     0.039 A 
HETATM    9  C   UNL     1      -3.031   3.077  11.576  1.00  0.00     0.028 A 
BRANCH   6  10
HETATM   10  C   UNL     1       0.580   4.312   9.666  1.00  0.00     0.212 C 
HETATM   11  O   UNL     1       0.533   5.209   8.784  1.00  0.00    -0.644 OA
HETATM   12  O   UNL     1       1.664   3.689   9.969  1.00  0.00    -0.644 OA
ENDBRANCH   6  10
BRANCH   7  13
HETATM   13  O   UNL     1      -0.561   1.776   9.301  1.00  0.00    -0.360 OA
ATOM     14  HO  UNL     1      -0.369   0.901   9.619  1.00  0.00     0.217 HD
ENDBRANCH   7  13
ENDBRANCH   3   4
BRANCH   3  15
HETATM   15  N   UNL     1      -2.611   6.694  13.106  1.00  0.00    -0.281 N 
ATOM     16  HN  UNL     1      -2.715   7.416  12.395  1.00  0.00     0.179 HD
BRANCH  15  17
HETATM   17  C   UNL     1      -1.725   6.988  14.132  1.00  0.00     0.042 A 
HETATM   18  C   UNL     1      -0.394   6.658  14.060  1.00  0.00     0.030 A 
HETATM   19  C   UNL     1       0.482   6.892  15.117  1.00  0.00     0.009 A 
HETATM   20  C   UNL     1       0.077   7.496  16.284  1.00  0.00    -0.058 A 
HETATM   21  C   UNL     1      -1.275   7.839  16.374  1.00  0.00     0.009 A 
HETATM   22  C   UNL     1      -2.149   7.596  15.299  1.00  0.00     0.030 A 
BRANCH  20  23
HETATM   23  C   UNL     1       1.035   7.713  17.409  1.00  0.00     0.038 C 
BRANCH  23  24
HETATM   24  C   UNL     1       2.154   8.687  17.079  1.00  0.00     0.004 C 
BRANCH  24  25
HETATM   25  C   UNL     1       3.541   8.094  16.695  1.00  0.00    -0.004 C 
HETATM   26  C   UNL     1       4.325   8.944  15.594  1.00  0.00     0.005 C 
ENDBRANCH  24  25
ENDBRANCH  23  24
ENDBRANCH  20  23
ENDBRANCH  15  17
ENDBRANCH   3  15
TORSDOF 8
ENDMDL
MODEL 8
REMARK VINA RESULT:    -8.168      3.923      6.484
REMARK INTER + INTRA:         -12.969
REMARK INTER:                 -12.122
REMARK INTRA:                  -0.847
REMARK UNBOUND:                -1.219
REMARK  8 active torsions:
REMARK  status: ('A' for Active; 'I' for Inactive)
REMARK    1  A    between atoms: C_1  and  N_18 
REMARK    2  A    between atoms: C_5  and  C_6 
REMARK    3  A    between atoms: C_7  and  O_21 
REMARK    4  A    between atoms: C_10  and  S_26 
REMARK    5  A    between atoms: C_11  and  C_12 
REMARK    6  A    between atoms: C_12  and  C_13 
REMARK    7  A    between atoms: C_13  and  C_14 
REMARK    8  A    between atoms: N_18  and  S_26 
ROOT
HETATM    1  O   UNL     1       5.768   6.991  15.526  1.00  0.00    -0.200 OA
HETATM    2  O   UNL     1       5.028   9.194  14.793  1.00  0.00    -0.200 OA
HETATM    3  S   UNL     1       5.052   8.184  15.849  1.00  0.00     0.263 S 
ENDROOT
BRANCH   3   4
HETATM    4  C   UNL     1       3.483   7.795  16.368  1.00  0.00     0.081 A 
HETATM    5  C   UNL     1       2.963   6.510  16.488  1.00  0.00     0.046 A 
HETATM    6  C   UNL     1       1.686   6.218  16.923  1.00  0.00     0.075 A 
HETATM    7  C   UNL     1       0.912   7.280  17.269  1.00  0.00     0.082 A 
HETATM    8  C   UNL     1       1.316   8.575  17.214  1.00  0.00     0.039 A 
HETATM    9  C   UNL     1       2.599   8.807  16.772  1.00  0.00     0.028 A 
BRANCH   6  10
HETATM   10  C   UNL     1       1.164   4.798  17.068  1.00  0.00     0.212 C 
HETATM   11  O   UNL     1       1.422   3.983  16.144  1.00  0.00    -0.644 OA
HETATM   12  O   UNL     1       0.429   4.496  18.079  1.00  0.00    -0.644 OA
ENDBRANCH   6  10
BRANCH   7  13
HETATM   13  O   UNL     1      -0.390   7.039  17.725  1.00  0.00    -0.360 OA
ATOM     14  HO  UNL     1      -0.828   6.242  17.448  1.00  0.00     0.217 HD
ENDBRANCH   7  13
ENDBRANCH   3   4
BRANCH   3  15
HETATM   15  N   UNL     1       5.774   8.881  17.081  1.00  0.00    -0.281 N 
ATOM     16  HN  UNL     1       5.326   9.727  17.432  1.00  0.00     0.179 HD
BRANCH  15  17
HETATM   17  C   UNL     1       6.930   8.498  17.745  1.00  0.00     0.042 A 
HETATM   18  C   UNL     1       6.932   7.486  18.675  1.00  0.00     0.030 A 
HETATM   19  C   UNL     1       8.077   7.146  19.391  1.00  0.00     0.009 A 
HETATM   20  C   UNL     1       9.281   7.779  19.192  1.00  0.00    -0.058 A 
HETATM   21  C   UNL     1       9.296   8.811  18.250  1.00  0.00     0.009 A 
HETATM   22  C   UNL     1       8.133   9.145  17.534  1.00  0.00     0.030 A 
BRANCH  20  23
HETATM   23  C   UNL     1      10.486   7.407  19.992  1.00  0.00     0.038 C 
BRANCH  23  24
HETATM   24  C   UNL     1      10.221   6.330  21.031  1.00  0.00     0.004 C 
BRANCH  24  25
HETATM   25  C   UNL     1      10.679   6.605  22.493  1.00  0.00    -0.004 C 
HETATM   26  C   UNL     1      10.293   5.445  23.520  1.00  0.00     0.005 C 
ENDBRANCH  24  25
ENDBRANCH  23  24
ENDBRANCH  20  23
ENDBRANCH  15  17
ENDBRANCH   3  15
TORSDOF 8
ENDMDL
MODEL 9
REMARK VINA RESULT:    -8.110      2.075      3.299
REMARK INTER + INTRA:         -12.885
REMARK INTER:                 -11.911
REMARK INTRA:                  -0.974
REMARK UNBOUND:                -1.219
REMARK  8 active torsions:
REMARK  status: ('A' for Active; 'I' for Inactive)
REMARK    1  A    between atoms: C_1  and  N_18 
REMARK    2  A    between atoms: C_5  and  C_6 
REMARK    3  A    between atoms: C_7  and  O_21 
REMARK    4  A    between atoms: C_10  and  S_26 
REMARK    5  A    between atoms: C_11  and  C_12 
REMARK    6  A    between atoms: C_12  and  C_13 
REMARK    7  A    between atoms: C_13  and  C_14 
REMARK    8  A    between atoms: N_18  and  S_26 
ROOT
HETATM    1  O   UNL     1       0.376   6.116  18.225  1.00  0.00    -0.200 OA
HETATM    2  O   UNL     1       2.189   5.867  16.616  1.00  0.00    -0.200 OA
HETATM    3  S   UNL     1       1.046   6.649  17.081  1.00  0.00     0.263 S 
ENDROOT
BRANCH   3   4
HETATM    4  C   UNL     1      -0.070   6.918  15.830  1.00  0.00     0.081 A 
HETATM    5  C   UNL     1       0.112   6.578  14.493  1.00  0.00     0.046 A 
HETATM    6  C   UNL     1      -0.815   6.798  13.495  1.00  0.00     0.075 A 
HETATM    7  C   UNL     1      -1.987   7.369  13.878  1.00  0.00     0.082 A 
HETATM    8  C   UNL     1      -2.287   7.724  15.154  1.00  0.00     0.039 A 
HETATM    9  C   UNL     1      -1.324   7.482  16.108  1.00  0.00     0.028 A 
BRANCH   6  10
HETATM   10  C   UNL     1      -0.590   6.386  12.049  1.00  0.00     0.212 C 
HETATM   11  O   UNL     1      -0.198   5.211  11.831  1.00  0.00    -0.644 OA
HETATM   12  O   UNL     1      -0.736   7.257  11.114  1.00  0.00    -0.644 OA
ENDBRANCH   6  10
BRANCH   7  13
HETATM   13  O   UNL     1      -2.966   7.606  12.906  1.00  0.00    -0.360 OA
ATOM     14  HO  UNL     1      -2.687   7.843  12.029  1.00  0.00     0.217 HD
ENDBRANCH   7  13
ENDBRANCH   3   4
BRANCH   3  15
HETATM   15  N   UNL     1       1.638   8.072  17.469  1.00  0.00    -0.281 N 
ATOM     16  HN  UNL     1       0.967   8.739  17.848  1.00  0.00     0.179 HD
BRANCH  15  17
HETATM   17  C   UNL     1       2.942   8.531  17.364  1.00  0.00     0.042 A 
HETATM   18  C   UNL     1       3.660   8.942  18.461  1.00  0.00     0.030 A 
HETATM   19  C   UNL     1       4.945   9.466  18.348  1.00  0.00     0.009 A 
HETATM   20  C   UNL     1       5.587   9.578  17.138  1.00  0.00    -0.058 A 
HETATM   21  C   UNL     1       4.871   9.165  16.010  1.00  0.00     0.009 A 
HETATM   22  C   UNL     1       3.574   8.637  16.138  1.00  0.00     0.030 A 
BRANCH  20  23
HETATM   23  C   UNL     1       6.956  10.166  17.046  1.00  0.00     0.038 C 
BRANCH  23  24
HETATM   24  C   UNL     1       7.936   9.594  18.056  1.00  0.00     0.004 C 
BRANCH  24  25
HETATM   25  C   UNL     1       8.217   8.064  18.006  1.00  0.00    -0.004 C 
HETATM   26  C   UNL     1       7.873   7.299  19.366  1.00  0.00     0.005 C 
ENDBRANCH  24  25
ENDBRANCH  23  24
ENDBRANCH  20  23
ENDBRANCH  15  17
ENDBRANCH   3  15
TORSDOF 8
ENDMDL
MODEL 10
REMARK VINA RESULT:    -8.097      8.291     10.835
REMARK INTER + INTRA:         -12.867
REMARK INTER:                 -12.178
REMARK INTRA:                  -0.689
REMARK UNBOUND:                -1.219
REMARK  8 active torsions:
REMARK  status: ('A' for Active; 'I' for Inactive)
REMARK    1  A    between atoms: C_1  and  N_18 
REMARK    2  A    between atoms: C_5  and  C_6 
REMARK    3  A    between atoms: C_7  and  O_21 
REMARK    4  A    between atoms: C_10  and  S_26 
REMARK    5  A    between atoms: C_11  and  C_12 
REMARK    6  A    between atoms: C_12  and  C_13 
REMARK    7  A    between atoms: C_13  and  C_14 
REMARK    8  A    between atoms: N_18  and  S_26 
ROOT
HETATM    1  O   UNL     1       0.158   0.956  10.782  1.00  0.00    -0.200 OA
HETATM    2  O   UNL     1      -0.553   1.359   8.487  1.00  0.00    -0.200 OA
HETATM    3  S   UNL     1      -0.909   0.918   9.834  1.00  0.00     0.263 S 
ENDROOT
BRANCH   3   4
HETATM    4  C   UNL     1      -1.610  -0.627   9.813  1.00  0.00     0.081 A 
HETATM    5  C   UNL     1      -2.614  -1.052   8.948  1.00  0.00     0.046 A 
HETATM    6  C   UNL     1      -3.161  -2.319   8.944  1.00  0.00     0.075 A 
HETATM    7  C   UNL     1      -2.651  -3.197   9.846  1.00  0.00     0.082 A 
HETATM    8  C   UNL     1      -1.659  -2.904  10.725  1.00  0.00     0.039 A 
HETATM    9  C   UNL     1      -1.151  -1.625  10.686  1.00  0.00     0.028 A 
BRANCH   6  10
HETATM   10  C   UNL     1      -4.237  -2.753   7.962  1.00  0.00     0.212 C 
HETATM   11  O   UNL     1      -3.935  -2.788   6.741  1.00  0.00    -0.644 OA
HETATM   12  O   UNL     1      -5.424  -3.001   8.394  1.00  0.00    -0.644 OA
ENDBRANCH   6  10
BRANCH   7  13
HETATM   13  O   UNL     1      -3.166  -4.499   9.879  1.00  0.00    -0.360 OA
ATOM     14  HO  UNL     1      -3.905  -4.709   9.320  1.00  0.00     0.217 HD
ENDBRANCH   7  13
ENDBRANCH   3   4
BRANCH   3  15
HETATM   15  N   UNL     1      -2.042   1.921  10.319  1.00  0.00    -0.281 N 
ATOM     16  HN  UNL     1      -2.986   1.536  10.348  1.00  0.00     0.179 HD
BRANCH  15  17
HETATM   17  C   UNL     1      -1.926   3.247  10.707  1.00  0.00     0.042 A 
HETATM   18  C   UNL     1      -2.985   3.947  11.233  1.00  0.00     0.030 A 
HETATM   19  C   UNL     1      -2.887   5.297  11.560  1.00  0.00     0.009 A 
HETATM   20  C   UNL     1      -1.719   6.005  11.407  1.00  0.00    -0.058 A 
HETATM   21  C   UNL     1      -0.631   5.309  10.873  1.00  0.00     0.009 A 
HETATM   22  C   UNL     1      -0.743   3.946  10.546  1.00  0.00     0.030 A 
BRANCH  20  23
HETATM   23  C   UNL     1      -1.652   7.458  11.745  1.00  0.00     0.038 C 
BRANCH  23  24
HETATM   24  C   UNL     1      -3.009   8.088  12.007  1.00  0.00     0.004 C 
BRANCH  24  25
HETATM   25  C   UNL     1      -3.274   8.676  13.424  1.00  0.00    -0.004 C 
HETATM   26  C   UNL     1      -3.814   7.604  14.477  1.00  0.00     0.005 C 
ENDBRANCH  24  25
ENDBRANCH  23  24
ENDBRANCH  20  23
ENDBRANCH  15  17
ENDBRANCH   3  15
TORSDOF 8
ENDMDL
MODEL 11
REMARK VINA RESULT:    -8.029      2.871      6.931
REMARK INTER + INTRA:         -12.769
REMARK INTER:                 -11.501
REMARK INTRA:                  -1.268
REMARK UNBOUND:                -1.219
REMARK  8 active torsions:
REMARK  status: ('A' for Active; 'I' for Inactive)
REMARK    1  A    between atoms: C_1  and  N_18 
REMARK    2  A    between atoms: C_5  and  C_6 
REMARK    3  A    between atoms: C_7  and  O_21 
REMARK    4  A    between atoms: C_10  and  S_26 
REMARK    5  A    between atoms: C_11  and  C_12 
REMARK    6  A    between atoms: C_12  and  C_13 
REMARK    7  A    between atoms: C_13  and  C_14 
REMARK    8  A    between atoms: N_18  and  S_26 
ROOT
HETATM    1  O   UNL     1      -1.636   5.281  18.189  1.00  0.00    -0.200 OA
HETATM    2  O   UNL     1      -1.249   7.350  19.417  1.00  0.00    -0.200 OA
HETATM    3  S   UNL     1      -1.175   6.633  18.146  1.00  0.00     0.263 S 
ENDROOT
BRANCH   3   4
HETATM    4  C   UNL     1       0.392   6.690  17.494  1.00  0.00     0.081 A 
HETATM    5  C   UNL     1       1.263   7.772  17.569  1.00  0.00     0.046 A 
HETATM    6  C   UNL     1       2.537   7.790  17.039  1.00  0.00     0.075 A 
HETATM    7  C   UNL     1       2.949   6.651  16.425  1.00  0.00     0.082 A 
HETATM    8  C   UNL     1       2.197   5.527  16.308  1.00  0.00     0.039 A 
HETATM    9  C   UNL     1       0.934   5.565  16.854  1.00  0.00     0.028 A 
BRANCH   6  10
HETATM   10  C   UNL     1       3.470   8.984  17.167  1.00  0.00     0.212 C 
HETATM   11  O   UNL     1       3.887   9.517  16.106  1.00  0.00    -0.644 OA
HETATM   12  O   UNL     1       3.855   9.362  18.335  1.00  0.00    -0.644 OA
ENDBRANCH   6  10
BRANCH   7  13
HETATM   13  O   UNL     1       4.237   6.614  15.877  1.00  0.00    -0.360 OA
ATOM     14  HO  UNL     1       4.334   6.387  14.959  1.00  0.00     0.217 HD
ENDBRANCH   7  13
ENDBRANCH   3   4
BRANCH   3  15
HETATM   15  N   UNL     1      -2.108   7.446  17.149  1.00  0.00    -0.281 N 
ATOM     16  HN  UNL     1      -2.638   8.210  17.568  1.00  0.00     0.179 HD
BRANCH  15  17
HETATM   17  C   UNL     1      -2.301   7.260  15.789  1.00  0.00     0.042 A 
HETATM   18  C   UNL     1      -3.411   6.621  15.292  1.00  0.00     0.030 A 
HETATM   19  C   UNL     1      -3.573   6.374  13.931  1.00  0.00     0.009 A 
HETATM   20  C   UNL     1      -2.649   6.781  12.998  1.00  0.00    -0.058 A 
HETATM   21  C   UNL     1      -1.513   7.433  13.486  1.00  0.00     0.009 A 
HETATM   22  C   UNL     1      -1.362   7.675  14.863  1.00  0.00     0.030 A 
BRANCH  20  23
HETATM   23  C   UNL     1      -2.840   6.481  11.547  1.00  0.00     0.038 C 
BRANCH  23  24
HETATM   24  C   UNL     1      -2.241   5.154  11.113  1.00  0.00     0.004 C 
BRANCH  24  25
HETATM   25  C   UNL     1      -3.119   3.878  11.269  1.00  0.00    -0.004 C 
HETATM   26  C   UNL     1      -4.684   4.146  11.099  1.00  0.00     0.005 C 
ENDBRANCH  24  25
ENDBRANCH  23  24
ENDBRANCH  20  23
ENDBRANCH  15  17
ENDBRANCH   3  15
TORSDOF 8
ENDMDL
MODEL 12
REMARK VINA RESULT:    -8.023      3.461      5.310
REMARK INTER + INTRA:         -12.759
REMARK INTER:                 -11.837
REMARK INTRA:                  -0.923
REMARK UNBOUND:                -1.219
REMARK  8 active torsions:
REMARK  status: ('A' for Active; 'I' for Inactive)
REMARK    1  A    between atoms: C_1  and  N_18 
REMARK    2  A    between atoms: C_5  and  C_6 
REMARK    3  A    between atoms: C_7  and  O_21 
REMARK    4  A    between atoms: C_10  and  S_26 
REMARK    5  A    between atoms: C_11  and  C_12 
REMARK    6  A    between atoms: C_12  and  C_13 
REMARK    7  A    between atoms: C_13  and  C_14 
REMARK    8  A    between atoms: N_18  and  S_26 
ROOT
HETATM    1  O   UNL     1       4.249   8.930  15.560  1.00  0.00    -0.200 OA
HETATM    2  O   UNL     1       3.953   9.275  17.954  1.00  0.00    -0.200 OA
HETATM    3  S   UNL     1       4.022   8.334  16.838  1.00  0.00     0.263 S 
ENDROOT
BRANCH   3   4
HETATM    4  C   UNL     1       2.645   7.344  16.778  1.00  0.00     0.081 A 
HETATM    5  C   UNL     1       1.339   7.753  17.032  1.00  0.00     0.046 A 
HETATM    6  C   UNL     1       0.233   6.929  16.967  1.00  0.00     0.075 A 
HETATM    7  C   UNL     1       0.464   5.639  16.608  1.00  0.00     0.082 A 
HETATM    8  C   UNL     1       1.689   5.132  16.317  1.00  0.00     0.039 A 
HETATM    9  C   UNL     1       2.756   5.997  16.400  1.00  0.00     0.028 A 
BRANCH   6  10
HETATM   10  C   UNL     1      -1.182   7.422  17.223  1.00  0.00     0.212 C 
HETATM   11  O   UNL     1      -1.743   7.060  18.289  1.00  0.00    -0.644 OA
HETATM   12  O   UNL     1      -1.779   8.124  16.325  1.00  0.00    -0.644 OA
ENDBRANCH   6  10
BRANCH   7  13
HETATM   13  O   UNL     1      -0.625   4.764  16.519  1.00  0.00    -0.360 OA
ATOM     14  HO  UNL     1      -0.894   4.293  17.299  1.00  0.00     0.217 HD
ENDBRANCH   7  13
ENDBRANCH   3   4
BRANCH   3  15
HETATM   15  N   UNL     1       5.249   7.380  17.168  1.00  0.00    -0.281 N 
ATOM     16  HN  UNL     1       5.096   6.388  16.985  1.00  0.00     0.179 HD
BRANCH  15  17
HETATM   17  C   UNL     1       6.500   7.708  17.669  1.00  0.00     0.042 A 
HETATM   18  C   UNL     1       7.358   8.541  16.993  1.00  0.00     0.030 A 
HETATM   19  C   UNL     1       8.640   8.818  17.463  1.00  0.00     0.009 A 
HETATM   20  C   UNL     1       9.114   8.301  18.645  1.00  0.00    -0.058 A 
HETATM   21  C   UNL     1       8.254   7.451  19.345  1.00  0.00     0.009 A 
HETATM   22  C   UNL     1       6.962   7.179  18.860  1.00  0.00     0.030 A 
BRANCH  20  23
HETATM   23  C   UNL     1      10.501   8.598  19.111  1.00  0.00     0.038 C 
BRANCH  23  24
HETATM   24  C   UNL     1      11.435   9.052  18.002  1.00  0.00     0.004 C 
BRANCH  24  25
HETATM   25  C   UNL     1      12.406   7.998  17.395  1.00  0.00    -0.004 C 
HETATM   26  C   UNL     1      13.256   7.199  18.486  1.00  0.00     0.005 C 
ENDBRANCH  24  25
ENDBRANCH  23  24
ENDBRANCH  20  23
ENDBRANCH  15  17
ENDBRANCH   3  15
TORSDOF 8
ENDMDL
MODEL 13
REMARK VINA RESULT:    -8.007      2.841      4.466
REMARK INTER + INTRA:         -12.737
REMARK INTER:                 -11.429
REMARK INTRA:                  -1.309
REMARK UNBOUND:                -1.219
REMARK  8 active torsions:
REMARK  status: ('A' for Active; 'I' for Inactive)
REMARK    1  A    between atoms: C_1  and  N_18 
REMARK    2  A    between atoms: C_5  and  C_6 
REMARK    3  A    between atoms: C_7  and  O_21 
REMARK    4  A    between atoms: C_10  and  S_26 
REMARK    5  A    between atoms: C_11  and  C_12 
REMARK    6  A    between atoms: C_12  and  C_13 
REMARK    7  A    between atoms: C_13  and  C_14 
REMARK    8  A    between atoms: N_18  and  S_26 
ROOT
HETATM    1  O   UNL     1      -3.354   8.973  15.044  1.00  0.00    -0.200 OA
HETATM    2  O   UNL     1      -4.755   6.998  15.314  1.00  0.00    -0.200 OA
HETATM    3  S   UNL     1      -3.430   7.547  15.033  1.00  0.00     0.263 S 
ENDROOT
BRANCH   3   4
HETATM    4  C   UNL     1      -2.809   6.944  13.572  1.00  0.00     0.081 A 
HETATM    5  C   UNL     1      -3.076   5.690  13.033  1.00  0.00     0.046 A 
HETATM    6  C   UNL     1      -2.566   5.227  11.837  1.00  0.00     0.075 A 
HETATM    7  C   UNL     1      -1.767   6.086  11.151  1.00  0.00     0.082 A 
HETATM    8  C   UNL     1      -1.454   7.340  11.566  1.00  0.00     0.039 A 
HETATM    9  C   UNL     1      -1.989   7.749  12.766  1.00  0.00     0.028 A 
BRANCH   6  10
HETATM   10  C   UNL     1      -2.904   3.859  11.267  1.00  0.00     0.212 C 
HETATM   11  O   UNL     1      -4.084   3.443  11.404  1.00  0.00    -0.644 OA
HETATM   12  O   UNL     1      -1.973   3.149  10.732  1.00  0.00    -0.644 OA
ENDBRANCH   6  10
BRANCH   7  13
HETATM   13  O   UNL     1      -1.231   5.668   9.926  1.00  0.00    -0.360 OA
ATOM     14  HO  UNL     1      -1.619   4.917   9.493  1.00  0.00     0.217 HD
ENDBRANCH   7  13
ENDBRANCH   3   4
BRANCH   3  15
HETATM   15  N   UNL     1      -2.490   6.988  16.186  1.00  0.00    -0.281 N 
ATOM     16  HN  UNL     1      -2.972   6.620  17.006  1.00  0.00     0.179 HD
BRANCH  15  17
HETATM   17  C   UNL     1      -1.106   6.932  16.232  1.00  0.00     0.042 A 
HETATM   18  C   UNL     1      -0.353   7.961  16.744  1.00  0.00     0.030 A 
HETATM   19  C   UNL     1       1.040   7.934  16.729  1.00  0.00     0.009 A 
HETATM   20  C   UNL     1       1.747   6.866  16.228  1.00  0.00    -0.058 A 
HETATM   21  C   UNL     1       0.996   5.811  15.703  1.00  0.00     0.009 A 
HETATM   22  C   UNL     1      -0.410   5.850  15.725  1.00  0.00     0.030 A 
BRANCH  20  23
HETATM   23  C   UNL     1       3.240   6.877  16.205  1.00  0.00     0.038 C 
BRANCH  23  24
HETATM   24  C   UNL     1       3.831   8.094  15.515  1.00  0.00     0.004 C 
BRANCH  24  25
HETATM   25  C   UNL     1       4.721   9.047  16.364  1.00  0.00    -0.004 C 
HETATM   26  C   UNL     1       4.291   9.135  17.900  1.00  0.00     0.005 C 
ENDBRANCH  24  25
ENDBRANCH  23  24
ENDBRANCH  20  23
ENDBRANCH  15  17
ENDBRANCH   3  15
TORSDOF 8
ENDMDL
MODEL 14
REMARK VINA RESULT:    -7.992      3.352      5.385
REMARK INTER + INTRA:         -12.715
REMARK INTER:                 -11.746
REMARK INTRA:                  -0.969
REMARK UNBOUND:                -1.219
REMARK  8 active torsions:
REMARK  status: ('A' for Active; 'I' for Inactive)
REMARK    1  A    between atoms: C_1  and  N_18 
REMARK    2  A    between atoms: C_5  and  C_6 
REMARK    3  A    between atoms: C_7  and  O_21 
REMARK    4  A    between atoms: C_10  and  S_26 
REMARK    5  A    between atoms: C_11  and  C_12 
REMARK    6  A    between atoms: C_12  and  C_13 
REMARK    7  A    between atoms: C_13  and  C_14 
REMARK    8  A    between atoms: N_18  and  S_26 
ROOT
HETATM    1  O   UNL     1       4.088   9.257  15.651  1.00  0.00    -0.200 OA
HETATM    2  O   UNL     1       3.959   9.303  18.083  1.00  0.00    -0.200 OA
HETATM    3  S   UNL     1       3.988   8.504  16.860  1.00  0.00     0.263 S 
ENDROOT
BRANCH   3   4
HETATM    4  C   UNL     1       2.658   7.452  16.778  1.00  0.00     0.081 A 
HETATM    5  C   UNL     1       1.331   7.801  17.008  1.00  0.00     0.046 A 
HETATM    6  C   UNL     1       0.265   6.927  16.925  1.00  0.00     0.075 A 
HETATM    7  C   UNL     1       0.561   5.649  16.573  1.00  0.00     0.082 A 
HETATM    8  C   UNL     1       1.813   5.197  16.304  1.00  0.00     0.039 A 
HETATM    9  C   UNL     1       2.838   6.111  16.404  1.00  0.00     0.028 A 
BRANCH   6  10
HETATM   10  C   UNL     1      -1.175   7.355  17.156  1.00  0.00     0.212 C 
HETATM   11  O   UNL     1      -1.702   8.117  16.305  1.00  0.00    -0.644 OA
HETATM   12  O   UNL     1      -1.779   6.987  18.231  1.00  0.00    -0.644 OA
ENDBRANCH   6  10
BRANCH   7  13
HETATM   13  O   UNL     1      -0.485   4.724  16.467  1.00  0.00    -0.360 OA
ATOM     14  HO  UNL     1      -1.359   5.047  16.283  1.00  0.00     0.217 HD
ENDBRANCH   7  13
ENDBRANCH   3   4
BRANCH   3  15
HETATM   15  N   UNL     1       5.280   7.588  16.986  1.00  0.00    -0.281 N 
ATOM     16  HN  UNL     1       5.212   6.670  16.548  1.00  0.00     0.179 HD
BRANCH  15  17
HETATM   17  C   UNL     1       6.488   7.866  17.608  1.00  0.00     0.042 A 
HETATM   18  C   UNL     1       7.374   8.784  17.099  1.00  0.00     0.030 A 
HETATM   19  C   UNL     1       8.616   9.014  17.685  1.00  0.00     0.009 A 
HETATM   20  C   UNL     1       9.021   8.360  18.825  1.00  0.00    -0.058 A 
HETATM   21  C   UNL     1       8.131   7.421  19.356  1.00  0.00     0.009 A 
HETATM   22  C   UNL     1       6.880   7.199  18.754  1.00  0.00     0.030 A 
BRANCH  20  23
HETATM   23  C   UNL     1      10.368   8.611  19.417  1.00  0.00     0.038 C 
BRANCH  23  24
HETATM   24  C   UNL     1      10.983   7.388  20.077  1.00  0.00     0.004 C 
BRANCH  24  25
HETATM   25  C   UNL     1      11.160   7.411  21.623  1.00  0.00    -0.004 C 
HETATM   26  C   UNL     1      10.440   6.198  22.373  1.00  0.00     0.005 C 
ENDBRANCH  24  25
ENDBRANCH  23  24
ENDBRANCH  20  23
ENDBRANCH  15  17
ENDBRANCH   3  15
TORSDOF 8
ENDMDL
MODEL 15
REMARK VINA RESULT:    -7.981      3.495      7.234
REMARK INTER + INTRA:         -12.699
REMARK INTER:                 -11.518
REMARK INTRA:                  -1.181
REMARK UNBOUND:                -1.219
REMARK  8 active torsions:
REMARK  status: ('A' for Active; 'I' for Inactive)
REMARK    1  A    between atoms: C_1  and  N_18 
REMARK    2  A    between atoms: C_5  and  C_6 
REMARK    3  A    between atoms: C_7  and  O_21 
REMARK    4  A    between atoms: C_10  and  S_26 
REMARK    5  A    between atoms: C_11  and  C_12 
REMARK    6  A    between atoms: C_12  and  C_13 
REMARK    7  A    between atoms: C_13  and  C_14 
REMARK    8  A    between atoms: N_18  and  S_26 
ROOT
HETATM    1  O   UNL     1      -4.288   9.485  17.571  1.00  0.00    -0.200 OA
HETATM    2  O   UNL     1      -3.006  10.393  15.708  1.00  0.00    -0.200 OA
HETATM    3  S   UNL     1      -3.524   9.212  16.396  1.00  0.00     0.263 S 
ENDROOT
BRANCH   3   4
HETATM    4  C   UNL     1      -2.281   8.113  16.756  1.00  0.00     0.081 A 
HETATM    5  C   UNL     1      -1.233   7.767  15.908  1.00  0.00     0.046 A 
HETATM    6  C   UNL     1      -0.227   6.877  16.229  1.00  0.00     0.075 A 
HETATM    7  C   UNL     1      -0.281   6.332  17.472  1.00  0.00     0.082 A 
HETATM    8  C   UNL     1      -1.241   6.608  18.391  1.00  0.00     0.039 A 
HETATM    9  C   UNL     1      -2.219   7.502  18.017  1.00  0.00     0.028 A 
BRANCH   6  10
HETATM   10  C   UNL     1       0.918   6.547  15.285  1.00  0.00     0.212 C 
HETATM   11  O   UNL     1       0.631   6.016  14.181  1.00  0.00    -0.644 OA
HETATM   12  O   UNL     1       2.129   6.752  15.666  1.00  0.00    -0.644 OA
ENDBRANCH   6  10
BRANCH   7  13
HETATM   13  O   UNL     1       0.720   5.428  17.850  1.00  0.00    -0.360 OA
ATOM     14  HO  UNL     1       1.613   5.744  17.923  1.00  0.00     0.217 HD
ENDBRANCH   7  13
ENDBRANCH   3   4
BRANCH   3  15
HETATM   15  N   UNL     1      -4.471   8.493  15.342  1.00  0.00    -0.281 N 
ATOM     16  HN  UNL     1      -5.469   8.661  15.462  1.00  0.00     0.179 HD
BRANCH  15  17
HETATM   17  C   UNL     1      -4.127   7.668  14.281  1.00  0.00     0.042 A 
HETATM   18  C   UNL     1      -4.292   6.305  14.337  1.00  0.00     0.030 A 
HETATM   19  C   UNL     1      -3.884   5.471  13.299  1.00  0.00     0.009 A 
HETATM   20  C   UNL     1      -3.321   5.959  12.144  1.00  0.00    -0.058 A 
HETATM   21  C   UNL     1      -3.145   7.344  12.071  1.00  0.00     0.009 A 
HETATM   22  C   UNL     1      -3.561   8.176  13.126  1.00  0.00     0.030 A 
BRANCH  20  23
HETATM   23  C   UNL     1      -2.873   5.037  11.058  1.00  0.00     0.038 C 
BRANCH  23  24
HETATM   24  C   UNL     1      -2.966   3.566  11.428  1.00  0.00     0.004 C 
BRANCH  24  25
HETATM   25  C   UNL     1      -1.902   2.600  10.831  1.00  0.00    -0.004 C 
HETATM   26  C   UNL     1      -2.446   1.121  10.570  1.00  0.00     0.005 C 
ENDBRANCH  24  25
ENDBRANCH  23  24
ENDBRANCH  20  23
ENDBRANCH  15  17
ENDBRANCH   3  15
TORSDOF 8
ENDMDL
MODEL 16
REMARK VINA RESULT:    -7.963      6.016     10.266
REMARK INTER + INTRA:         -12.674
REMARK INTER:                 -11.604
REMARK INTRA:                  -1.070
REMARK UNBOUND:                -1.219
REMARK  8 active torsions:
REMARK  status: ('A' for Active; 'I' for Inactive)
REMARK    1  A    between atoms: C_1  and  N_18 
REMARK    2  A    between atoms: C_5  and  C_6 
REMARK    3  A    between atoms: C_7  and  O_21 
REMARK    4  A    between atoms: C_10  and  S_26 
REMARK    5  A    between atoms: C_11  and  C_12 
REMARK    6  A    between atoms: C_12  and  C_13 
REMARK    7  A    between atoms: C_13  and  C_14 
REMARK    8  A    between atoms: N_18  and  S_26 
ROOT
HETATM    1  O   UNL     1       6.758  10.700  19.241  1.00  0.00    -0.200 OA
HETATM    2  O   UNL     1       6.788  10.373  16.826  1.00  0.00    -0.200 OA
HETATM    3  S   UNL     1       7.038   9.817  18.154  1.00  0.00     0.263 S 
ENDROOT
BRANCH   3   4
HETATM    4  C   UNL     1       8.622   9.221  18.285  1.00  0.00     0.081 A 
HETATM    5  C   UNL     1       9.162   8.588  19.401  1.00  0.00     0.046 A 
HETATM    6  C   UNL     1      10.452   8.103  19.479  1.00  0.00     0.075 A 
HETATM    7  C   UNL     1      11.218   8.251  18.367  1.00  0.00     0.082 A 
HETATM    8  C   UNL     1      10.796   8.832  17.216  1.00  0.00     0.039 A 
HETATM    9  C   UNL     1       9.501   9.299  17.194  1.00  0.00     0.028 A 
BRANCH   6  10
HETATM   10  C   UNL     1      10.995   7.391  20.707  1.00  0.00     0.212 C 
HETATM   11  O   UNL     1      10.950   8.003  21.806  1.00  0.00    -0.644 OA
HETATM   12  O   UNL     1      11.539   6.232  20.577  1.00  0.00    -0.644 OA
ENDBRANCH   6  10
BRANCH   7  13
HETATM   13  O   UNL     1      12.533   7.768  18.392  1.00  0.00    -0.360 OA
ATOM     14  HO  UNL     1      13.208   8.269  17.949  1.00  0.00     0.217 HD
ENDBRANCH   7  13
ENDBRANCH   3   4
BRANCH   3  15
HETATM   15  N   UNL     1       6.073   8.560  18.272  1.00  0.00    -0.281 N 
ATOM     16  HN  UNL     1       6.397   7.813  18.886  1.00  0.00     0.179 HD
BRANCH  15  17
HETATM   17  C   UNL     1       4.851   8.338  17.655  1.00  0.00     0.042 A 
HETATM   18  C   UNL     1       3.754   9.124  17.912  1.00  0.00     0.030 A 
HETATM   19  C   UNL     1       2.509   8.860  17.345  1.00  0.00     0.009 A 
HETATM   20  C   UNL     1       2.308   7.818  16.472  1.00  0.00    -0.058 A 
HETATM   21  C   UNL     1       3.413   7.008  16.200  1.00  0.00     0.009 A 
HETATM   22  C   UNL     1       4.665   7.284  16.779  1.00  0.00     0.030 A 
BRANCH  20  23
HETATM   23  C   UNL     1       0.956   7.547  15.898  1.00  0.00     0.038 C 
BRANCH  23  24
HETATM   24  C   UNL     1      -0.141   7.437  16.944  1.00  0.00     0.004 C 
BRANCH  24  25
HETATM   25  C   UNL     1       0.010   6.341  18.039  1.00  0.00    -0.004 C 
HETATM   26  C   UNL     1       0.216   4.869  17.456  1.00  0.00     0.005 C 
ENDBRANCH  24  25
ENDBRANCH  23  24
ENDBRANCH  20  23
ENDBRANCH  15  17
ENDBRANCH   3  15
TORSDOF 8
ENDMDL
MODEL 17
REMARK VINA RESULT:    -7.959      1.841      2.470
REMARK INTER + INTRA:         -12.668
REMARK INTER:                 -11.667
REMARK INTRA:                  -1.001
REMARK UNBOUND:                -1.219
REMARK  8 active torsions:
REMARK  status: ('A' for Active; 'I' for Inactive)
REMARK    1  A    between atoms: C_1  and  N_18 
REMARK    2  A    between atoms: C_5  and  C_6 
REMARK    3  A    between atoms: C_7  and  O_21 
REMARK    4  A    between atoms: C_10  and  S_26 
REMARK    5  A    between atoms: C_11  and  C_12 
REMARK    6  A    between atoms: C_12  and  C_13 
REMARK    7  A    between atoms: C_13  and  C_14 
REMARK    8  A    between atoms: N_18  and  S_26 
ROOT
HETATM    1  O   UNL     1      -1.274   6.919  17.960  1.00  0.00    -0.200 OA
HETATM    2  O   UNL     1       0.803   5.766  17.419  1.00  0.00    -0.200 OA
HETATM    3  S   UNL     1      -0.169   6.797  17.063  1.00  0.00     0.263 S 
ENDROOT
BRANCH   3   4
HETATM    4  C   UNL     1      -0.732   6.595  15.475  1.00  0.00     0.081 A 
HETATM    5  C   UNL     1      -1.988   6.968  15.004  1.00  0.00     0.046 A 
HETATM    6  C   UNL     1      -2.419   6.802  13.704  1.00  0.00     0.075 A 
HETATM    7  C   UNL     1      -1.526   6.250  12.841  1.00  0.00     0.082 A 
HETATM    8  C   UNL     1      -0.269   5.866  13.178  1.00  0.00     0.039 A 
HETATM    9  C   UNL     1       0.107   6.054  14.489  1.00  0.00     0.028 A 
BRANCH   6  10
HETATM   10  C   UNL     1      -3.789   7.250  13.222  1.00  0.00     0.212 C 
HETATM   11  O   UNL     1      -4.798   6.793  13.819  1.00  0.00    -0.644 OA
HETATM   12  O   UNL     1      -3.877   8.016  12.192  1.00  0.00    -0.644 OA
ENDBRANCH   6  10
BRANCH   7  13
HETATM   13  O   UNL     1      -1.911   6.067  11.507  1.00  0.00    -0.360 OA
ATOM     14  HO  UNL     1      -2.687   6.515  11.192  1.00  0.00     0.217 HD
ENDBRANCH   7  13
ENDBRANCH   3   4
BRANCH   3  15
HETATM   15  N   UNL     1       0.641   8.164  17.083  1.00  0.00    -0.281 N 
ATOM     16  HN  UNL     1       0.075   9.010  17.140  1.00  0.00     0.179 HD
BRANCH  15  17
HETATM   17  C   UNL     1       2.012   8.365  17.033  1.00  0.00     0.042 A 
HETATM   18  C   UNL     1       2.713   8.869  18.103  1.00  0.00     0.030 A 
HETATM   19  C   UNL     1       4.078   9.135  18.032  1.00  0.00     0.009 A 
HETATM   20  C   UNL     1       4.815   8.883  16.899  1.00  0.00    -0.058 A 
HETATM   21  C   UNL     1       4.118   8.371  15.800  1.00  0.00     0.009 A 
HETATM   22  C   UNL     1       2.739   8.107  15.886  1.00  0.00     0.030 A 
BRANCH  20  23
HETATM   23  C   UNL     1       6.273   9.200  16.845  1.00  0.00     0.038 C 
BRANCH  23  24
HETATM   24  C   UNL     1       7.156   8.122  17.450  1.00  0.00     0.004 C 
BRANCH  24  25
HETATM   25  C   UNL     1       7.408   8.169  18.985  1.00  0.00    -0.004 C 
HETATM   26  C   UNL     1       8.356   7.000  19.520  1.00  0.00     0.005 C 
ENDBRANCH  24  25
ENDBRANCH  23  24
ENDBRANCH  20  23
ENDBRANCH  15  17
ENDBRANCH   3  15
TORSDOF 8
ENDMDL
MODEL 18
REMARK VINA RESULT:    -7.909      8.102     12.405
REMARK INTER + INTRA:         -12.597
REMARK INTER:                 -11.685
REMARK INTRA:                  -0.912
REMARK UNBOUND:                -1.219
REMARK  8 active torsions:
REMARK  status: ('A' for Active; 'I' for Inactive)
REMARK    1  A    between atoms: C_1  and  N_18 
REMARK    2  A    between atoms: C_5  and  C_6 
REMARK    3  A    between atoms: C_7  and  O_21 
REMARK    4  A    between atoms: C_10  and  S_26 
REMARK    5  A    between atoms: C_11  and  C_12 
REMARK    6  A    between atoms: C_12  and  C_13 
REMARK    7  A    between atoms: C_13  and  C_14 
REMARK    8  A    between atoms: N_18  and  S_26 
ROOT
HETATM    1  O   UNL     1      10.614   8.385  21.271  1.00  0.00    -0.200 OA
HETATM    2  O   UNL     1      11.786   6.721  19.931  1.00  0.00    -0.200 OA
HETATM    3  S   UNL     1      10.725   7.012  20.893  1.00  0.00     0.263 S 
ENDROOT
BRANCH   3   4
HETATM    4  C   UNL     1      10.862   6.039  22.278  1.00  0.00     0.081 A 
HETATM    5  C   UNL     1      10.769   4.651  22.308  1.00  0.00     0.046 A 
HETATM    6  C   UNL     1      10.894   3.881  23.447  1.00  0.00     0.075 A 
HETATM    7  C   UNL     1      11.146   4.552  24.601  1.00  0.00     0.082 A 
HETATM    8  C   UNL     1      11.279   5.900  24.692  1.00  0.00     0.039 A 
HETATM    9  C   UNL     1      11.143   6.618  23.525  1.00  0.00     0.028 A 
BRANCH   6  10
HETATM   10  C   UNL     1      10.814   2.364  23.433  1.00  0.00     0.212 C 
HETATM   11  O   UNL     1      11.700   1.725  24.058  1.00  0.00    -0.644 OA
HETATM   12  O   UNL     1       9.898   1.786  22.737  1.00  0.00    -0.644 OA
ENDBRANCH   6  10
BRANCH   7  13
HETATM   13  O   UNL     1      11.291   3.818  25.784  1.00  0.00    -0.360 OA
ATOM     14  HO  UNL     1      12.150   3.481  26.008  1.00  0.00     0.217 HD
ENDBRANCH   7  13
ENDBRANCH   3   4
BRANCH   3  15
HETATM   15  N   UNL     1       9.375   6.582  20.173  1.00  0.00    -0.281 N 
ATOM     16  HN  UNL     1       9.072   5.624  20.343  1.00  0.00     0.179 HD
BRANCH  15  17
HETATM   17  C   UNL     1       8.552   7.331  19.345  1.00  0.00     0.042 A 
HETATM   18  C   UNL     1       9.048   8.050  18.285  1.00  0.00     0.030 A 
HETATM   19  C   UNL     1       8.232   8.856  17.495  1.00  0.00     0.009 A 
HETATM   20  C   UNL     1       6.877   8.958  17.706  1.00  0.00    -0.058 A 
HETATM   21  C   UNL     1       6.356   8.232  18.781  1.00  0.00     0.009 A 
HETATM   22  C   UNL     1       7.191   7.422  19.571  1.00  0.00     0.030 A 
BRANCH  20  23
HETATM   23  C   UNL     1       6.032   9.847  16.855  1.00  0.00     0.038 C 
BRANCH  23  24
HETATM   24  C   UNL     1       5.255   9.107  15.779  1.00  0.00     0.004 C 
BRANCH  24  25
HETATM   25  C   UNL     1       3.832   8.591  16.139  1.00  0.00    -0.004 C 
HETATM   26  C   UNL     1       3.144   9.381  17.345  1.00  0.00     0.005 C 
ENDBRANCH  24  25
ENDBRANCH  23  24
ENDBRANCH  20  23
ENDBRANCH  15  17
ENDBRANCH   3  15
TORSDOF 8
ENDMDL
MODEL 19
REMARK VINA RESULT:    -7.893      5.893      8.980
REMARK INTER + INTRA:         -12.573
REMARK INTER:                 -11.652
REMARK INTRA:                  -0.920
REMARK UNBOUND:                -1.219
REMARK  8 active torsions:
REMARK  status: ('A' for Active; 'I' for Inactive)
REMARK    1  A    between atoms: C_1  and  N_18 
REMARK    2  A    between atoms: C_5  and  C_6 
REMARK    3  A    between atoms: C_7  and  O_21 
REMARK    4  A    between atoms: C_10  and  S_26 
REMARK    5  A    between atoms: C_11  and  C_12 
REMARK    6  A    between atoms: C_12  and  C_13 
REMARK    7  A    between atoms: C_13  and  C_14 
REMARK    8  A    between atoms: N_18  and  S_26 
ROOT
HETATM    1  O   UNL     1      -1.659   5.877   9.983  1.00  0.00    -0.200 OA
HETATM    2  O   UNL     1       0.153   6.666  11.407  1.00  0.00    -0.200 OA
HETATM    3  S   UNL     1      -1.067   5.871  11.282  1.00  0.00     0.263 S 
ENDROOT
BRANCH   3   4
HETATM    4  C   UNL     1      -2.219   6.320  12.445  1.00  0.00     0.081 A 
HETATM    5  C   UNL     1      -2.258   7.535  13.123  1.00  0.00     0.046 A 
HETATM    6  C   UNL     1      -3.212   7.880  14.059  1.00  0.00     0.075 A 
HETATM    7  C   UNL     1      -4.180   6.957  14.299  1.00  0.00     0.082 A 
HETATM    8  C   UNL     1      -4.258   5.749  13.685  1.00  0.00     0.039 A 
HETATM    9  C   UNL     1      -3.279   5.457  12.762  1.00  0.00     0.028 A 
BRANCH   6  10
HETATM   10  C   UNL     1      -3.236   9.230  14.757  1.00  0.00     0.212 C 
HETATM   11  O   UNL     1      -3.554  10.237  14.072  1.00  0.00    -0.644 OA
HETATM   12  O   UNL     1      -2.871   9.311  15.988  1.00  0.00    -0.644 OA
ENDBRANCH   6  10
BRANCH   7  13
HETATM   13  O   UNL     1      -5.177   7.261  15.234  1.00  0.00    -0.360 OA
ATOM     14  HO  UNL     1      -5.220   8.145  15.581  1.00  0.00     0.217 HD
ENDBRANCH   7  13
ENDBRANCH   3   4
BRANCH   3  15
HETATM   15  N   UNL     1      -0.635   4.381  11.627  1.00  0.00    -0.281 N 
ATOM     16  HN  UNL     1      -0.087   4.268  12.479  1.00  0.00     0.179 HD
BRANCH  15  17
HETATM   17  C   UNL     1      -0.902   3.212  10.929  1.00  0.00     0.042 A 
HETATM   18  C   UNL     1      -2.094   2.542  11.062  1.00  0.00     0.030 A 
HETATM   19  C   UNL     1      -2.337   1.333  10.415  1.00  0.00     0.009 A 
HETATM   20  C   UNL     1      -1.413   0.751   9.579  1.00  0.00    -0.058 A 
HETATM   21  C   UNL     1      -0.194   1.420   9.433  1.00  0.00     0.009 A 
HETATM   22  C   UNL     1       0.038   2.640  10.093  1.00  0.00     0.030 A 
BRANCH  20  23
HETATM   23  C   UNL     1      -1.693  -0.557   8.917  1.00  0.00     0.038 C 
BRANCH  23  24
HETATM   24  C   UNL     1      -3.065  -1.124   9.240  1.00  0.00     0.004 C 
BRANCH  24  25
HETATM   25  C   UNL     1      -3.195  -2.668   9.383  1.00  0.00    -0.004 C 
HETATM   26  C   UNL     1      -4.258  -3.323   8.388  1.00  0.00     0.005 C 
ENDBRANCH  24  25
ENDBRANCH  23  24
ENDBRANCH  20  23
ENDBRANCH  15  17
ENDBRANCH   3  15
TORSDOF 8
ENDMDL
MODEL 20
REMARK VINA RESULT:    -7.870      3.271      7.595
REMARK INTER + INTRA:         -12.541
REMARK INTER:                 -11.596
REMARK INTRA:                  -0.945
REMARK UNBOUND:                -1.219
REMARK  8 active torsions:
REMARK  status: ('A' for Active; 'I' for Inactive)
REMARK    1  A    between atoms: C_1  and  N_18 
REMARK    2  A    between atoms: C_5  and  C_6 
REMARK    3  A    between atoms: C_7  and  O_21 
REMARK    4  A    between atoms: C_10  and  S_26 
REMARK    5  A    between atoms: C_11  and  C_12 
REMARK    6  A    between atoms: C_12  and  C_13 
REMARK    7  A    between atoms: C_13  and  C_14 
REMARK    8  A    between atoms: N_18  and  S_26 
ROOT
HETATM    1  O   UNL     1       0.789   5.917  17.366  1.00  0.00    -0.200 OA
HETATM    2  O   UNL     1       0.477   7.390  19.282  1.00  0.00    -0.200 OA
HETATM    3  S   UNL     1       0.798   7.257  17.863  1.00  0.00     0.263 S 
ENDROOT
BRANCH   3   4
HETATM    4  C   UNL     1       2.277   8.003  17.491  1.00  0.00     0.081 A 
HETATM    5  C   UNL     1       3.170   8.540  18.413  1.00  0.00     0.046 A 
HETATM    6  C   UNL     1       4.372   9.134  18.085  1.00  0.00     0.075 A 
HETATM    7  C   UNL     1       4.689   9.162  16.765  1.00  0.00     0.082 A 
HETATM    8  C   UNL     1       3.909   8.651  15.778  1.00  0.00     0.039 A 
HETATM    9  C   UNL     1       2.720   8.073  16.161  1.00  0.00     0.028 A 
BRANCH   6  10
HETATM   10  C   UNL     1       5.334   9.684  19.126  1.00  0.00     0.212 C 
HETATM   11  O   UNL     1       5.769  10.853  18.960  1.00  0.00    -0.644 OA
HETATM   12  O   UNL     1       5.722   8.926  20.091  1.00  0.00    -0.644 OA
ENDBRANCH   6  10
BRANCH   7  13
HETATM   13  O   UNL     1       5.902   9.745  16.379  1.00  0.00    -0.360 OA
ATOM     14  HO  UNL     1       6.076  10.643  16.637  1.00  0.00     0.217 HD
ENDBRANCH   7  13
ENDBRANCH   3   4
BRANCH   3  15
HETATM   15  N   UNL     1      -0.327   8.079  17.098  1.00  0.00    -0.281 N 
ATOM     16  HN  UNL     1      -0.451   9.043  17.406  1.00  0.00     0.179 HD
BRANCH  15  17
HETATM   17  C   UNL     1      -1.161   7.667  16.070  1.00  0.00     0.042 A 
HETATM   18  C   UNL     1      -0.678   7.351  14.824  1.00  0.00     0.030 A 
HETATM   19  C   UNL     1      -1.522   7.003  13.772  1.00  0.00     0.009 A 
HETATM   20  C   UNL     1      -2.887   6.924  13.923  1.00  0.00    -0.058 A 
HETATM   21  C   UNL     1      -3.395   7.244  15.185  1.00  0.00     0.009 A 
HETATM   22  C   UNL     1      -2.532   7.594  16.238  1.00  0.00     0.030 A 
BRANCH  20  23
HETATM   23  C   UNL     1      -3.768   6.570  12.771  1.00  0.00     0.038 C 
BRANCH  23  24
HETATM   24  C   UNL     1      -3.005   6.197  11.510  1.00  0.00     0.004 C 
BRANCH  24  25
HETATM   25  C   UNL     1      -2.949   4.692  11.118  1.00  0.00    -0.004 C 
HETATM   26  C   UNL     1      -4.376   3.974  11.105  1.00  0.00     0.005 C 
ENDBRANCH  24  25
ENDBRANCH  23  24
ENDBRANCH  20  23
ENDBRANCH  15  17
ENDBRANCH   3  15
TORSDOF 8
ENDMDL
