REMARK  4 active torsions:
REMARK  status: ('A' for Active; 'I' for Inactive)
REMARK    1  A    between atoms: C_1  and  C_4 
REMARK    2  A    between atoms: C_4  and  C_6 
REMARK    3  A    between atoms: C_6  and  C_7 
REMARK    4  A    between atoms: C_7  and  C_8 
ROOT
HETATM    1  C   UNL     1     128.790  81.390  -4.904  1.00  0.00     0.225 C 
HETATM    2  O   UNL     1     129.273  80.368  -5.369  1.00  0.00    -0.286 OA
ENDROOT
BRANCH   1   3
HETATM    3  C   UNL     1     127.969  81.381  -3.697  1.00  0.00     0.246 C 
HETATM    4  O   UNL     1     127.732  82.464  -3.117  1.00  0.00    -0.642 OA
HETATM    5  O   UNL     1     127.509  80.310  -3.256  1.00  0.00    -0.642 OA
ENDBRANCH   1   3
BRANCH   1   6
HETATM    6  C   UNL     1     129.058  82.710  -5.585  1.00  0.00     0.101 C 
BRANCH   6   7
HETATM    7  C   UNL     1     129.983  82.461  -6.758  1.00  0.00     0.121 C 
BRANCH   7   8
HETATM    8  C   UNL     1     130.318  83.753  -7.464  1.00  0.00     0.172 C 
HETATM    9  O   UNL     1     130.489  83.711  -8.702  1.00  0.00    -0.648 OA
HETATM   10  O   UNL     1     130.455  84.800  -6.794  1.00  0.00    -0.648 OA
ENDBRANCH   7   8
ENDBRANCH   6   7
ENDBRANCH   1   6
TORSDOF 4
