REMARK  4 active torsions:
REMARK  status: ('A' for Active; 'I' for Inactive)
REMARK       I    between atoms: N_1  and  C_2 
REMARK    1  A    between atoms: C_2  and  O_4 
REMARK    2  A    between atoms: O_4  and  P_5 
REMARK    3  A    between atoms: P_5  and  O_7 
REMARK    4  A    between atoms: P_5  and  O_8 
ROOT
HETATM    1  O   UNL     1       0.986   0.592   0.353  1.00  0.00    -0.203 OA
ENDROOT
BRANCH   1   2
HETATM    2  C   UNL     1       1.399   0.245   1.641  1.00  0.00     0.367 C 
HETATM    3  N   UNL     1       2.780   0.325   1.981  1.00  0.00    -0.345 N 
HETATM    4  H   UNL     1       3.106   0.069   2.939  1.00  0.00     0.161 HD
HETATM    5  H   UNL     1       3.477   0.640   1.271  1.00  0.00     0.161 HD
HETATM    6  O   UNL     1       0.565  -0.138   2.506  1.00  0.00    -0.238 OA
ENDBRANCH   1   2
BRANCH   1   7
HETATM    7  P   UNL     1      -0.661   0.525  -0.136  1.00  0.00     0.399 P 
HETATM    8  O   UNL     1      -1.480   1.473   0.711  1.00  0.00    -0.631 OA
BRANCH   7   9
HETATM    9  O   UNL     1      -1.247  -1.051   0.056  1.00  0.00    -0.307 OA
HETATM   10  H   UNL     1      -0.642  -1.612  -0.492  1.00  0.00     0.222 HD
ENDBRANCH   7   9
BRANCH   7  11
HETATM   11  O   UNL     1      -0.779   0.978  -1.762  1.00  0.00    -0.307 OA
HETATM   12  H   UNL     1      -1.731   0.836  -1.995  1.00  0.00     0.222 HD
ENDBRANCH   7  11
ENDBRANCH   1   7
TORSDOF 4
