REMARK  13 active torsions:
REMARK  status: ('A' for Active; 'I' for Inactive)
REMARK    1  A    between atoms: N_1  and  CA_6 
REMARK    2  A    between atoms: C_2  and  C_3 
REMARK    3  A    between atoms: C_2  and  C_10 
REMARK    4  A    between atoms: C_3  and  C_4 
REMARK    5  A    between atoms: C_3  and  O_11 
REMARK    6  A    between atoms: C_4  and  C_5 
REMARK    7  A    between atoms: C_4  and  N_12 
REMARK    8  A    between atoms: C_5  and  O_13 
REMARK    9  A    between atoms: CA_6  and  C_7 
REMARK   10  A    between atoms: CA_6  and  C_10 
REMARK   11  A    between atoms: C_7  and  OXT_9 
REMARK   12  A    between atoms: O_13  and  S_14 
REMARK   13  A    between atoms: S_14  and  O_17 
ROOT
HETATM    1  C   UNL     1      -0.141  -2.024   0.084  1.00  0.00     0.153 C 
ENDROOT
BRANCH   1   2
HETATM    2  C   UNL     1       0.884  -0.970  -0.397  1.00  0.00     0.036 C 
BRANCH   2   3
HETATM    3  C   UNL     1       1.285   0.046   0.691  1.00  0.00     0.049 C 
BRANCH   3   4
HETATM    4  CA  UNL     1       2.467   0.949   0.280  1.00  0.00     0.314 C 
BRANCH   4   5
HETATM    5  N   UNL     1       2.184   1.646  -0.977  1.00  0.00     0.093 N 
HETATM    6  H1  UNL     1       2.965   2.317  -1.164  1.00  0.00     0.314 HD
HETATM    7  H2  UNL     1       1.327   2.230  -0.844  1.00  0.00     0.314 HD
ENDBRANCH   4   5
BRANCH   4   8
HETATM    8  C   UNL     1       3.745   0.158   0.178  1.00  0.00     0.173 C 
HETATM    9  O   UNL     1       4.146  -0.276  -0.936  1.00  0.00    -0.648 OA
BRANCH   8  10
HETATM   10  OXT UNL     1       4.467  -0.129   1.332  1.00  0.00    -0.775 OA
HETATM   11  HXT UNL     1       5.321  -0.673   1.289  1.00  0.00     0.167 HD
ENDBRANCH   8  10
ENDBRANCH   4   8
ENDBRANCH   3   4
ENDBRANCH   2   3
ENDBRANCH   1   2
BRANCH   1  12
HETATM   12  C   UNL     1      -1.534  -1.460   0.496  1.00  0.00     0.271 C 
BRANCH  12  13
HETATM   13  C   UNL     1      -2.150  -0.548  -0.580  1.00  0.00     0.230 C 
BRANCH  13  14
HETATM   14  O   UNL     1      -3.509  -0.327  -0.286  1.00  0.00    -0.261 OA
BRANCH  14  15
HETATM   15  S   UNL     1      -4.146   0.725  -1.452  1.00  0.00     0.240 S 
HETATM   16  O   UNL     1      -3.487   2.072  -1.341  1.00  0.00    -0.579 OA
HETATM   17  O   UNL     1      -5.620   0.885  -1.213  1.00  0.00    -0.579 OA
BRANCH  15  18
HETATM   18  O   UNL     1      -3.906   0.107  -2.998  1.00  0.00    -0.274 OA
HETATM   19  H   UNL     1      -4.332  -0.787  -2.983  1.00  0.00     0.234 HD
ENDBRANCH  15  18
ENDBRANCH  14  15
ENDBRANCH  13  14
ENDBRANCH  12  13
BRANCH  12  20
HETATM   20  N   UNL     1      -1.457  -0.757   1.780  1.00  0.00     0.087 N 
HETATM   21  H   UNL     1      -2.423  -0.484   2.073  1.00  0.00     0.313 HD
HETATM   22  H   UNL     1      -1.119  -1.429   2.507  1.00  0.00     0.313 HD
ENDBRANCH  12  20
ENDBRANCH   1  12
BRANCH   1  23
HETATM   23  O   UNL     1      -0.309  -2.966  -0.946  1.00  0.00    -0.393 OA
HETATM   24  H   UNL     1      -0.657  -3.797  -0.528  1.00  0.00     0.210 HD
ENDBRANCH   1  23
TORSDOF 13
