MODEL 1
REMARK VINA RESULT:   -15.741      0.000      0.000
REMARK INTER + INTRA:         -39.338
REMARK INTER:                 -35.985
REMARK INTRA:                  -3.353
REMARK UNBOUND:                -3.353
REMARK  22 active torsions:
REMARK  status: ('A' for Active; 'I' for Inactive)
REMARK    1  A    between atoms: C_8  and  C_12 
REMARK    2  A    between atoms: C_12  and  C_13 
REMARK    3  A    between atoms: C_13  and  C_14 
REMARK    4  A    between atoms: C_14  and  O_16 
REMARK    5  A    between atoms: O_16  and  C_49 
REMARK    6  A    between atoms: C_21  and  C_24 
REMARK    7  A    between atoms: C_30  and  C_33 
REMARK    8  A    between atoms: C_44  and  C_45 
REMARK    9  A    between atoms: C_45  and  O_47 
REMARK   10  A    between atoms: C_49  and  C_50 
REMARK   11  A    between atoms: C_51  and  C_53 
REMARK   12  A    between atoms: C_53  and  C_54 
REMARK   13  A    between atoms: C_54  and  C_55 
REMARK   14  A    between atoms: C_55  and  C_56 
REMARK   15  A    between atoms: C_56  and  C_58 
REMARK   16  A    between atoms: C_58  and  C_59 
REMARK   17  A    between atoms: C_59  and  C_60 
REMARK   18  A    between atoms: C_60  and  C_61 
REMARK   19  A    between atoms: C_61  and  C_63 
REMARK   20  A    between atoms: C_63  and  C_64 
REMARK   21  A    between atoms: C_64  and  C_65 
REMARK   22  A    between atoms: C_65  and  C_66 
ROOT
HETATM    1  C   UNL     1     -56.708  63.622 345.009  1.00  0.00     0.014 A 
HETATM    2  C   UNL     1     -54.837  63.113 349.419  1.00  0.00     0.055 C 
HETATM    3  C   UNL     1     -53.480  58.533 348.199  1.00  0.00     0.060 C 
HETATM    4  C   UNL     1     -55.190  59.067 343.642  1.00  0.00     0.060 C 
HETATM    5  N   UNL     1     -55.621  63.115 347.112  1.00  0.00    -0.362 N 
ATOM      6  HN  UNL     1     -55.255  62.199 346.852  1.00  0.00     0.165 HD
HETATM    7  C   UNL     1     -56.421  63.948 346.281  1.00  0.00     0.024 C 
HETATM    8  C   UNL     1     -56.778  65.235 346.991  1.00  0.00     0.046 C 
HETATM    9  C   UNL     1     -55.874  65.175 348.259  1.00  0.00     0.041 C 
HETATM   10  C   UNL     1     -55.432  63.712 348.268  1.00  0.00     0.016 C 
HETATM   11  C   UNL     1     -54.714  66.116 348.103  1.00  0.00     0.017 C 
HETATM   12  N   UNL     1     -54.385  60.852 348.472  1.00  0.00    -0.355 N 
ATOM     13  HN  UNL     1     -54.777  60.983 347.539  1.00  0.00     0.166 HD
HETATM   14  C   UNL     1     -54.388  61.828 349.474  1.00  0.00     0.041 A 
HETATM   15  C   UNL     1     -53.776  61.207 350.674  1.00  0.00    -0.023 A 
HETATM   16  C   UNL     1     -53.386  59.921 350.344  1.00  0.00    -0.002 A 
HETATM   17  C   UNL     1     -53.769  59.661 348.918  1.00  0.00     0.045 A 
HETATM   18  C   UNL     1     -53.616  61.994 351.895  1.00  0.00     0.051 C 
HETATM   19  N   UNL     1     -54.563  59.028 346.040  1.00  0.00    -0.355 N 
ATOM     20  HN  UNL     1     -55.009  59.900 346.324  1.00  0.00     0.166 HD
HETATM   21  C   UNL     1     -53.856  58.231 346.840  1.00  0.00     0.041 A 
HETATM   22  C   UNL     1     -53.395  57.023 346.081  1.00  0.00    -0.027 A 
HETATM   23  C   UNL     1     -53.827  57.203 344.778  1.00  0.00    -0.024 A 
HETATM   24  C   UNL     1     -54.601  58.478 344.732  1.00  0.00     0.041 A 
HETATM   25  C   UNL     1     -52.562  55.948 346.631  1.00  0.00     0.051 C 
HETATM   26  N   UNL     1     -55.973  61.135 344.789  1.00  0.00    -0.354 N 
ATOM     27  HN  UNL     1     -55.748  60.849 345.741  1.00  0.00     0.166 HD
HETATM   28  C   UNL     1     -55.846  60.334 343.630  1.00  0.00     0.041 A 
HETATM   29  C   UNL     1     -56.430  61.045 342.518  1.00  0.00    -0.019 A 
HETATM   30  C   UNL     1     -56.799  62.316 343.013  1.00  0.00     0.046 A 
HETATM   31  C   UNL     1     -56.446  62.343 344.413  1.00  0.00     0.057 A 
HETATM   32  C   UNL     1     -56.590  60.578 341.138  1.00  0.00     0.052 C 
HETATM   33  C   UNL     1     -57.351  63.600 342.636  1.00  0.00     0.180 A 
HETATM   34  O   UNL     1     -57.775  63.981 341.558  1.00  0.00    -0.291 OA
HETATM   35  C   UNL     1     -57.267  64.505 343.908  1.00  0.00     0.197 A 
ENDROOT
BRANCH   8  36
HETATM   36  C   UNL     1     -58.246  65.338 347.330  1.00  0.00     0.021 C 
BRANCH  36  37
HETATM   37  C   UNL     1     -58.499  66.654 348.042  1.00  0.00     0.112 C 
BRANCH  37  38
HETATM   38  C   UNL     1     -59.894  66.670 348.576  1.00  0.00     0.259 C 
HETATM   39  O   UNL     1     -60.763  65.804 348.452  1.00  0.00    -0.265 OA
BRANCH  38  40
HETATM   40  O   UNL     1     -60.191  67.812 349.259  1.00  0.00    -0.318 OA
BRANCH  40  41
HETATM   41  C   UNL     1     -61.277  67.752 350.217  1.00  0.00     0.206 C 
BRANCH  41  42
HETATM   42  C   UNL     1     -60.716  67.404 351.550  1.00  0.00     0.002 C 
HETATM   43  C   UNL     1     -61.301  66.459 352.291  1.00  0.00    -0.086 C 
HETATM   44  C   UNL     1     -62.499  65.785 351.761  1.00  0.00     0.043 C 
BRANCH  43  45
HETATM   45  C   UNL     1     -60.814  66.037 353.645  1.00  0.00     0.033 C 
BRANCH  45  46
HETATM   46  C   UNL     1     -61.897  65.551 354.615  1.00  0.00     0.005 C 
BRANCH  46  47
HETATM   47  C   UNL     1     -61.569  64.163 355.155  1.00  0.00     0.004 C 
BRANCH  47  48
HETATM   48  C   UNL     1     -60.735  63.310 354.203  1.00  0.00    -0.019 C 
HETATM   49  C   UNL     1     -61.574  62.197 353.636  1.00  0.00     0.010 C 
BRANCH  48  50
HETATM   50  C   UNL     1     -59.475  62.740 354.858  1.00  0.00     0.004 C 
BRANCH  50  51
HETATM   51  C   UNL     1     -59.227  63.284 356.263  1.00  0.00     0.001 C 
BRANCH  51  52
HETATM   52  C   UNL     1     -58.256  64.457 356.311  1.00  0.00     0.004 C 
BRANCH  52  53
HETATM   53  C   UNL     1     -58.681  65.515 357.327  1.00  0.00    -0.019 C 
HETATM   54  C   UNL     1     -58.859  66.895 356.698  1.00  0.00     0.010 C 
BRANCH  53  55
HETATM   55  C   UNL     1     -57.651  65.614 358.436  1.00  0.00     0.004 C 
BRANCH  55  56
HETATM   56  C   UNL     1     -56.566  64.560 358.358  1.00  0.00     0.001 C 
BRANCH  56  57
HETATM   57  C   UNL     1     -56.877  63.436 359.344  1.00  0.00     0.004 C 
BRANCH  57  58
HETATM   58  C   UNL     1     -55.617  62.696 359.771  1.00  0.00    -0.023 C 
HETATM   59  C   UNL     1     -55.759  61.242 359.396  1.00  0.00     0.009 C 
HETATM   60  C   UNL     1     -54.408  63.282 359.084  1.00  0.00     0.009 C 
ENDBRANCH  57  58
ENDBRANCH  56  57
ENDBRANCH  55  56
ENDBRANCH  53  55
ENDBRANCH  52  53
ENDBRANCH  51  52
ENDBRANCH  50  51
ENDBRANCH  48  50
ENDBRANCH  47  48
ENDBRANCH  46  47
ENDBRANCH  45  46
ENDBRANCH  43  45
ENDBRANCH  41  42
ENDBRANCH  40  41
ENDBRANCH  38  40
ENDBRANCH  37  38
ENDBRANCH  36  37
ENDBRANCH   8  36
BRANCH  35  61
HETATM   61  C   UNL     1     -56.400  65.696 343.601  1.00  0.00     0.274 C 
HETATM   62  O   UNL     1     -56.732  66.863 343.431  1.00  0.00    -0.264 OA
BRANCH  61  63
HETATM   63  O   UNL     1     -55.062  65.374 343.498  1.00  0.00    -0.326 OA
HETATM   64  C   UNL     1     -54.171  66.116 344.321  1.00  0.00     0.213 C 
ENDBRANCH  61  63
ENDBRANCH  35  61
BRANCH  16  65
HETATM   65  C   UNL     1     -52.684  58.922 351.106  1.00  0.00     0.004 C 
HETATM   66  C   UNL     1     -52.682  58.812 352.432  1.00  0.00     0.012 C 
ENDBRANCH  16  65
BRANCH  23  67
HETATM   67  C   UNL     1     -53.634  56.315 343.616  1.00  0.00     0.037 C 
HETATM   68  C   UNL     1     -54.899  55.536 343.274  1.00  0.00     0.010 C 
ENDBRANCH  23  67
TORSDOF 22
ENDMDL
MODEL 2
REMARK VINA RESULT:   -15.685      1.209      2.570
REMARK INTER + INTRA:         -39.211
REMARK INTER:                 -35.105
REMARK INTRA:                  -4.106
REMARK UNBOUND:                -3.353
REMARK  22 active torsions:
REMARK  status: ('A' for Active; 'I' for Inactive)
REMARK    1  A    between atoms: C_8  and  C_12 
REMARK    2  A    between atoms: C_12  and  C_13 
REMARK    3  A    between atoms: C_13  and  C_14 
REMARK    4  A    between atoms: C_14  and  O_16 
REMARK    5  A    between atoms: O_16  and  C_49 
REMARK    6  A    between atoms: C_21  and  C_24 
REMARK    7  A    between atoms: C_30  and  C_33 
REMARK    8  A    between atoms: C_44  and  C_45 
REMARK    9  A    between atoms: C_45  and  O_47 
REMARK   10  A    between atoms: C_49  and  C_50 
REMARK   11  A    between atoms: C_51  and  C_53 
REMARK   12  A    between atoms: C_53  and  C_54 
REMARK   13  A    between atoms: C_54  and  C_55 
REMARK   14  A    between atoms: C_55  and  C_56 
REMARK   15  A    between atoms: C_56  and  C_58 
REMARK   16  A    between atoms: C_58  and  C_59 
REMARK   17  A    between atoms: C_59  and  C_60 
REMARK   18  A    between atoms: C_60  and  C_61 
REMARK   19  A    between atoms: C_61  and  C_63 
REMARK   20  A    between atoms: C_63  and  C_64 
REMARK   21  A    between atoms: C_64  and  C_65 
REMARK   22  A    between atoms: C_65  and  C_66 
ROOT
HETATM    1  C   UNL     1     -56.605  64.031 345.211  1.00  0.00     0.014 A 
HETATM    2  C   UNL     1     -54.583  63.328 349.527  1.00  0.00     0.055 C 
HETATM    3  C   UNL     1     -53.585  58.690 348.187  1.00  0.00     0.060 C 
HETATM    4  C   UNL     1     -55.452  59.409 343.717  1.00  0.00     0.060 C 
HETATM    5  N   UNL     1     -55.465  63.419 347.257  1.00  0.00    -0.362 N 
ATOM      6  HN  UNL     1     -55.171  62.485 346.969  1.00  0.00     0.165 HD
HETATM    7  C   UNL     1     -56.243  64.316 346.474  1.00  0.00     0.024 C 
HETATM    8  C   UNL     1     -56.484  65.611 347.216  1.00  0.00     0.046 C 
HETATM    9  C   UNL     1     -55.532  65.472 348.442  1.00  0.00     0.041 C 
HETATM   10  C   UNL     1     -55.187  63.984 348.412  1.00  0.00     0.016 C 
HETATM   11  C   UNL     1     -54.320  66.338 348.248  1.00  0.00     0.017 C 
HETATM   12  N   UNL     1     -54.323  61.059 348.531  1.00  0.00    -0.355 N 
ATOM     13  HN  UNL     1     -54.746  61.230 347.618  1.00  0.00     0.166 HD
HETATM   14  C   UNL     1     -54.219  62.016 349.545  1.00  0.00     0.041 A 
HETATM   15  C   UNL     1     -53.597  61.337 350.708  1.00  0.00    -0.023 A 
HETATM   16  C   UNL     1     -53.308  60.034 350.345  1.00  0.00    -0.002 A 
HETATM   17  C   UNL     1     -53.768  59.822 348.933  1.00  0.00     0.045 A 
HETATM   18  C   UNL     1     -53.333  62.091 351.932  1.00  0.00     0.051 C 
HETATM   19  N   UNL     1     -54.726  59.289 346.085  1.00  0.00    -0.355 N 
ATOM     20  HN  UNL     1     -55.101  60.184 346.400  1.00  0.00     0.166 HD
HETATM   21  C   UNL     1     -54.040  58.435 346.842  1.00  0.00     0.041 A 
HETATM   22  C   UNL     1     -53.692  57.212 346.048  1.00  0.00    -0.027 A 
HETATM   23  C   UNL     1     -54.168  57.441 344.767  1.00  0.00    -0.024 A 
HETATM   24  C   UNL     1     -54.857  58.765 344.773  1.00  0.00     0.041 A 
HETATM   25  C   UNL     1     -52.909  56.076 346.546  1.00  0.00     0.051 C 
HETATM   26  N   UNL     1     -56.047  61.504 344.925  1.00  0.00    -0.354 N 
ATOM     27  HN  UNL     1     -55.800  61.189 345.863  1.00  0.00     0.166 HD
HETATM   28  C   UNL     1     -56.023  60.716 343.751  1.00  0.00     0.041 A 
HETATM   29  C   UNL     1     -56.606  61.481 342.676  1.00  0.00    -0.019 A 
HETATM   30  C   UNL     1     -56.869  62.766 343.204  1.00  0.00     0.046 A 
HETATM   31  C   UNL     1     -56.454  62.747 344.588  1.00  0.00     0.057 A 
HETATM   32  C   UNL     1     -56.857  61.048 341.298  1.00  0.00     0.052 C 
HETATM   33  C   UNL     1     -57.351  64.089 342.870  1.00  0.00     0.180 A 
HETATM   34  O   UNL     1     -57.795  64.514 341.816  1.00  0.00    -0.291 OA
HETATM   35  C   UNL     1     -57.152  64.965 344.148  1.00  0.00     0.197 A 
ENDROOT
BRANCH   8  36
HETATM   36  C   UNL     1     -57.926  65.805 347.621  1.00  0.00     0.021 C 
BRANCH  36  37
HETATM   37  C   UNL     1     -58.162  67.273 347.925  1.00  0.00     0.112 C 
BRANCH  37  38
HETATM   38  C   UNL     1     -59.528  67.447 348.504  1.00  0.00     0.259 C 
HETATM   39  O   UNL     1     -60.016  68.464 349.002  1.00  0.00    -0.265 OA
BRANCH  38  40
HETATM   40  O   UNL     1     -60.273  66.305 348.467  1.00  0.00    -0.318 OA
BRANCH  40  41
HETATM   41  C   UNL     1     -61.321  66.161 349.457  1.00  0.00     0.206 C 
BRANCH  41  42
HETATM   42  C   UNL     1     -60.721  65.630 350.710  1.00  0.00     0.002 C 
HETATM   43  C   UNL     1     -61.422  65.657 351.846  1.00  0.00    -0.086 C 
HETATM   44  C   UNL     1     -62.783  66.220 351.824  1.00  0.00     0.043 C 
BRANCH  43  45
HETATM   45  C   UNL     1     -60.907  65.148 353.159  1.00  0.00     0.033 C 
BRANCH  45  46
HETATM   46  C   UNL     1     -61.980  64.770 354.188  1.00  0.00     0.005 C 
BRANCH  46  47
HETATM   47  C   UNL     1     -61.593  63.504 354.946  1.00  0.00     0.004 C 
BRANCH  47  48
HETATM   48  C   UNL     1     -60.224  62.948 354.564  1.00  0.00    -0.019 C 
HETATM   49  C   UNL     1     -60.361  61.534 354.068  1.00  0.00     0.010 C 
BRANCH  48  50
HETATM   50  C   UNL     1     -59.212  63.009 355.710  1.00  0.00     0.004 C 
BRANCH  50  51
HETATM   51  C   UNL     1     -59.864  63.023 357.090  1.00  0.00     0.001 C 
BRANCH  51  52
HETATM   52  C   UNL     1     -59.804  64.375 357.790  1.00  0.00     0.004 C 
BRANCH  52  53
HETATM   53  C   UNL     1     -58.838  65.337 357.102  1.00  0.00    -0.019 C 
HETATM   54  C   UNL     1     -57.610  65.647 357.954  1.00  0.00     0.010 C 
BRANCH  53  55
HETATM   55  C   UNL     1     -59.546  66.638 356.775  1.00  0.00     0.004 C 
BRANCH  55  56
HETATM   56  C   UNL     1     -59.035  67.313 355.518  1.00  0.00     0.001 C 
BRANCH  56  57
HETATM   57  C   UNL     1     -60.197  67.996 354.800  1.00  0.00     0.004 C 
BRANCH  57  58
HETATM   58  C   UNL     1     -59.721  69.148 353.927  1.00  0.00    -0.023 C 
HETATM   59  C   UNL     1     -58.244  69.352 354.156  1.00  0.00     0.009 C 
HETATM   60  C   UNL     1     -59.972  68.839 352.471  1.00  0.00     0.009 C 
ENDBRANCH  57  58
ENDBRANCH  56  57
ENDBRANCH  55  56
ENDBRANCH  53  55
ENDBRANCH  52  53
ENDBRANCH  51  52
ENDBRANCH  50  51
ENDBRANCH  48  50
ENDBRANCH  47  48
ENDBRANCH  46  47
ENDBRANCH  45  46
ENDBRANCH  43  45
ENDBRANCH  41  42
ENDBRANCH  40  41
ENDBRANCH  38  40
ENDBRANCH  37  38
ENDBRANCH  36  37
ENDBRANCH   8  36
BRANCH  35  61
HETATM   61  C   UNL     1     -56.223  66.102 343.820  1.00  0.00     0.274 C 
HETATM   62  O   UNL     1     -56.483  67.291 343.680  1.00  0.00    -0.264 OA
BRANCH  61  63
HETATM   63  O   UNL     1     -54.915  65.695 343.652  1.00  0.00    -0.326 OA
HETATM   64  C   UNL     1     -53.927  66.458 344.332  1.00  0.00     0.213 C 
ENDBRANCH  61  63
ENDBRANCH  35  61
BRANCH  16  65
HETATM   65  C   UNL     1     -52.641  58.978 351.061  1.00  0.00     0.004 C 
HETATM   66  C   UNL     1     -52.626  58.823 352.382  1.00  0.00     0.012 C 
ENDBRANCH  16  65
BRANCH  23  67
HETATM   67  C   UNL     1     -54.084  56.562 343.586  1.00  0.00     0.037 C 
HETATM   68  C   UNL     1     -55.399  55.840 343.316  1.00  0.00     0.010 C 
ENDBRANCH  23  67
TORSDOF 22
ENDMDL
MODEL 3
REMARK VINA RESULT:   -15.671      0.589      1.024
REMARK INTER + INTRA:         -39.177
REMARK INTER:                 -36.188
REMARK INTRA:                  -2.989
REMARK UNBOUND:                -3.353
REMARK  22 active torsions:
REMARK  status: ('A' for Active; 'I' for Inactive)
REMARK    1  A    between atoms: C_8  and  C_12 
REMARK    2  A    between atoms: C_12  and  C_13 
REMARK    3  A    between atoms: C_13  and  C_14 
REMARK    4  A    between atoms: C_14  and  O_16 
REMARK    5  A    between atoms: O_16  and  C_49 
REMARK    6  A    between atoms: C_21  and  C_24 
REMARK    7  A    between atoms: C_30  and  C_33 
REMARK    8  A    between atoms: C_44  and  C_45 
REMARK    9  A    between atoms: C_45  and  O_47 
REMARK   10  A    between atoms: C_49  and  C_50 
REMARK   11  A    between atoms: C_51  and  C_53 
REMARK   12  A    between atoms: C_53  and  C_54 
REMARK   13  A    between atoms: C_54  and  C_55 
REMARK   14  A    between atoms: C_55  and  C_56 
REMARK   15  A    between atoms: C_56  and  C_58 
REMARK   16  A    between atoms: C_58  and  C_59 
REMARK   17  A    between atoms: C_59  and  C_60 
REMARK   18  A    between atoms: C_60  and  C_61 
REMARK   19  A    between atoms: C_61  and  C_63 
REMARK   20  A    between atoms: C_63  and  C_64 
REMARK   21  A    between atoms: C_64  and  C_65 
REMARK   22  A    between atoms: C_65  and  C_66 
ROOT
HETATM    1  C   UNL     1     -56.695  63.641 345.163  1.00  0.00     0.014 A 
HETATM    2  C   UNL     1     -54.758  63.104 349.541  1.00  0.00     0.055 C 
HETATM    3  C   UNL     1     -53.407  58.537 348.266  1.00  0.00     0.060 C 
HETATM    4  C   UNL     1     -55.186  59.100 343.739  1.00  0.00     0.060 C 
HETATM    5  N   UNL     1     -55.577  63.120 347.246  1.00  0.00    -0.362 N 
ATOM      6  HN  UNL     1     -55.211  62.208 346.974  1.00  0.00     0.165 HD
HETATM    7  C   UNL     1     -56.390  63.958 346.433  1.00  0.00     0.024 C 
HETATM    8  C   UNL     1     -56.741  65.238 347.158  1.00  0.00     0.046 C 
HETATM    9  C   UNL     1     -55.818  65.171 348.412  1.00  0.00     0.041 C 
HETATM   10  C   UNL     1     -55.371  63.710 348.403  1.00  0.00     0.016 C 
HETATM   11  C   UNL     1     -54.663  66.117 348.246  1.00  0.00     0.017 C 
HETATM   12  N   UNL     1     -54.314  60.851 348.570  1.00  0.00    -0.355 N 
ATOM     13  HN  UNL     1     -54.721  60.988 347.644  1.00  0.00     0.166 HD
HETATM   14  C   UNL     1     -54.305  61.820 349.579  1.00  0.00     0.041 A 
HETATM   15  C   UNL     1     -53.673  61.192 350.765  1.00  0.00    -0.023 A 
HETATM   16  C   UNL     1     -53.285  59.909 350.420  1.00  0.00    -0.002 A 
HETATM   17  C   UNL     1     -53.688  59.658 348.998  1.00  0.00     0.045 A 
HETATM   18  C   UNL     1     -53.497  61.969 351.990  1.00  0.00     0.051 C 
HETATM   19  N   UNL     1     -54.524  59.045 346.127  1.00  0.00    -0.355 N 
ATOM     20  HN  UNL     1     -54.968  59.914 346.424  1.00  0.00     0.166 HD
HETATM   21  C   UNL     1     -53.803  58.244 346.910  1.00  0.00     0.041 A 
HETATM   22  C   UNL     1     -53.349  57.043 346.136  1.00  0.00    -0.027 A 
HETATM   23  C   UNL     1     -53.802  57.231 344.841  1.00  0.00    -0.024 A 
HETATM   24  C   UNL     1     -54.579  58.505 344.816  1.00  0.00     0.041 A 
HETATM   25  C   UNL     1     -52.506  55.966 346.665  1.00  0.00     0.051 C 
HETATM   26  N   UNL     1     -55.958  61.157 344.913  1.00  0.00    -0.354 N 
ATOM     27  HN  UNL     1     -55.717  60.865 345.860  1.00  0.00     0.166 HD
HETATM   28  C   UNL     1     -55.846  60.365 343.746  1.00  0.00     0.041 A 
HETATM   29  C   UNL     1     -56.448  61.083 342.649  1.00  0.00    -0.019 A 
HETATM   30  C   UNL     1     -56.813  62.350 343.159  1.00  0.00     0.046 A 
HETATM   31  C   UNL     1     -56.439  62.367 344.554  1.00  0.00     0.057 A 
HETATM   32  C   UNL     1     -56.628  60.626 341.268  1.00  0.00     0.052 C 
HETATM   33  C   UNL     1     -57.374  63.634 342.800  1.00  0.00     0.180 A 
HETATM   34  O   UNL     1     -57.816  64.022 341.731  1.00  0.00    -0.291 OA
HETATM   35  C   UNL     1     -57.273  64.530 344.077  1.00  0.00     0.197 A 
ENDROOT
BRANCH   8  36
HETATM   36  C   UNL     1     -58.204  65.335 347.519  1.00  0.00     0.021 C 
BRANCH  36  37
HETATM   37  C   UNL     1     -58.495  66.732 348.036  1.00  0.00     0.112 C 
BRANCH  37  38
HETATM   38  C   UNL     1     -59.859  66.762 348.645  1.00  0.00     0.259 C 
HETATM   39  O   UNL     1     -60.745  65.908 348.562  1.00  0.00    -0.265 OA
BRANCH  38  40
HETATM   40  O   UNL     1     -60.104  67.903 349.350  1.00  0.00    -0.318 OA
BRANCH  40  41
HETATM   41  C   UNL     1     -61.186  67.871 350.313  1.00  0.00     0.206 C 
BRANCH  41  42
HETATM   42  C   UNL     1     -60.621  67.561 351.653  1.00  0.00     0.002 C 
HETATM   43  C   UNL     1     -61.098  66.528 352.353  1.00  0.00    -0.086 C 
HETATM   44  C   UNL     1     -62.183  65.720 351.770  1.00  0.00     0.043 C 
BRANCH  43  45
HETATM   45  C   UNL     1     -60.596  66.135 353.710  1.00  0.00     0.033 C 
BRANCH  45  46
HETATM   46  C   UNL     1     -61.669  65.668 354.702  1.00  0.00     0.005 C 
BRANCH  46  47
HETATM   47  C   UNL     1     -61.301  64.322 355.316  1.00  0.00     0.004 C 
BRANCH  47  48
HETATM   48  C   UNL     1     -60.270  63.534 354.510  1.00  0.00    -0.019 C 
HETATM   49  C   UNL     1     -60.937  62.390 353.797  1.00  0.00     0.010 C 
BRANCH  48  50
HETATM   50  C   UNL     1     -59.111  63.019 355.365  1.00  0.00     0.004 C 
BRANCH  50  51
HETATM   51  C   UNL     1     -58.729  63.966 356.499  1.00  0.00     0.001 C 
BRANCH  51  52
HETATM   52  C   UNL     1     -58.243  63.261 357.759  1.00  0.00     0.004 C 
BRANCH  52  53
HETATM   53  C   UNL     1     -57.540  64.217 358.719  1.00  0.00    -0.019 C 
HETATM   54  C   UNL     1     -57.350  65.612 358.127  1.00  0.00     0.010 C 
BRANCH  53  55
HETATM   55  C   UNL     1     -56.182  63.662 359.104  1.00  0.00     0.004 C 
BRANCH  55  56
HETATM   56  C   UNL     1     -56.252  62.432 359.987  1.00  0.00     0.001 C 
BRANCH  56  57
HETATM   57  C   UNL     1     -54.852  61.849 360.158  1.00  0.00     0.004 C 
BRANCH  57  58
HETATM   58  C   UNL     1     -54.630  60.641 359.258  1.00  0.00    -0.023 C 
HETATM   59  C   UNL     1     -53.309  60.007 359.615  1.00  0.00     0.009 C 
HETATM   60  C   UNL     1     -55.743  59.639 359.444  1.00  0.00     0.009 C 
ENDBRANCH  57  58
ENDBRANCH  56  57
ENDBRANCH  55  56
ENDBRANCH  53  55
ENDBRANCH  52  53
ENDBRANCH  51  52
ENDBRANCH  50  51
ENDBRANCH  48  50
ENDBRANCH  47  48
ENDBRANCH  46  47
ENDBRANCH  45  46
ENDBRANCH  43  45
ENDBRANCH  41  42
ENDBRANCH  40  41
ENDBRANCH  38  40
ENDBRANCH  37  38
ENDBRANCH  36  37
ENDBRANCH   8  36
BRANCH  35  61
HETATM   61  C   UNL     1     -56.414  65.726 343.767  1.00  0.00     0.274 C 
HETATM   62  O   UNL     1     -56.745  66.900 343.655  1.00  0.00    -0.264 OA
BRANCH  61  63
HETATM   63  O   UNL     1     -55.087  65.399 343.581  1.00  0.00    -0.326 OA
HETATM   64  C   UNL     1     -54.136  66.371 343.999  1.00  0.00     0.213 C 
ENDBRANCH  61  63
ENDBRANCH  35  61
BRANCH  16  65
HETATM   65  C   UNL     1     -52.569  58.906 351.164  1.00  0.00     0.004 C 
HETATM   66  C   UNL     1     -52.704  58.656 352.463  1.00  0.00     0.012 C 
ENDBRANCH  16  65
BRANCH  23  67
HETATM   67  C   UNL     1     -53.624  56.353 343.670  1.00  0.00     0.037 C 
HETATM   68  C   UNL     1     -54.864  55.512 343.391  1.00  0.00     0.010 C 
ENDBRANCH  23  67
TORSDOF 22
ENDMDL
MODEL 4
REMARK VINA RESULT:   -15.373      1.256      2.712
REMARK INTER + INTRA:         -38.496
REMARK INTER:                 -34.707
REMARK INTRA:                  -3.789
REMARK UNBOUND:                -3.353
REMARK  22 active torsions:
REMARK  status: ('A' for Active; 'I' for Inactive)
REMARK    1  A    between atoms: C_8  and  C_12 
REMARK    2  A    between atoms: C_12  and  C_13 
REMARK    3  A    between atoms: C_13  and  C_14 
REMARK    4  A    between atoms: C_14  and  O_16 
REMARK    5  A    between atoms: O_16  and  C_49 
REMARK    6  A    between atoms: C_21  and  C_24 
REMARK    7  A    between atoms: C_30  and  C_33 
REMARK    8  A    between atoms: C_44  and  C_45 
REMARK    9  A    between atoms: C_45  and  O_47 
REMARK   10  A    between atoms: C_49  and  C_50 
REMARK   11  A    between atoms: C_51  and  C_53 
REMARK   12  A    between atoms: C_53  and  C_54 
REMARK   13  A    between atoms: C_54  and  C_55 
REMARK   14  A    between atoms: C_55  and  C_56 
REMARK   15  A    between atoms: C_56  and  C_58 
REMARK   16  A    between atoms: C_58  and  C_59 
REMARK   17  A    between atoms: C_59  and  C_60 
REMARK   18  A    between atoms: C_60  and  C_61 
REMARK   19  A    between atoms: C_61  and  C_63 
REMARK   20  A    between atoms: C_63  and  C_64 
REMARK   21  A    between atoms: C_64  and  C_65 
REMARK   22  A    between atoms: C_65  and  C_66 
ROOT
HETATM    1  C   UNL     1     -56.780  63.609 344.868  1.00  0.00     0.014 A 
HETATM    2  C   UNL     1     -54.924  63.424 349.310  1.00  0.00     0.055 C 
HETATM    3  C   UNL     1     -53.419  58.824 348.375  1.00  0.00     0.060 C 
HETATM    4  C   UNL     1     -55.114  59.029 343.786  1.00  0.00     0.060 C 
HETATM    5  N   UNL     1     -55.693  63.263 347.003  1.00  0.00    -0.362 N 
ATOM      6  HN  UNL     1     -55.296  62.345 346.801  1.00  0.00     0.165 HD
HETATM    7  C   UNL     1     -56.511  64.020 346.120  1.00  0.00     0.024 C 
HETATM    8  C   UNL     1     -56.913  65.335 346.750  1.00  0.00     0.046 C 
HETATM    9  C   UNL     1     -56.016  65.379 348.023  1.00  0.00     0.041 C 
HETATM   10  C   UNL     1     -55.529  63.935 348.122  1.00  0.00     0.016 C 
HETATM   11  C   UNL     1     -54.884  66.345 347.816  1.00  0.00     0.017 C 
HETATM   12  N   UNL     1     -54.397  61.126 348.503  1.00  0.00    -0.355 N 
ATOM     13  HN  UNL     1     -54.787  61.188 347.562  1.00  0.00     0.166 HD
HETATM   14  C   UNL     1     -54.436  62.160 349.445  1.00  0.00     0.041 A 
HETATM   15  C   UNL     1     -53.813  61.631 350.683  1.00  0.00    -0.023 A 
HETATM   16  C   UNL     1     -53.382  60.340 350.433  1.00  0.00    -0.002 A 
HETATM   17  C   UNL     1     -53.747  59.983 349.023  1.00  0.00     0.045 A 
HETATM   18  C   UNL     1     -53.685  62.494 351.855  1.00  0.00     0.051 C 
HETATM   19  N   UNL     1     -54.503  59.154 346.185  1.00  0.00    -0.355 N 
ATOM     20  HN  UNL     1     -54.977  60.027 346.414  1.00  0.00     0.166 HD
HETATM   21  C   UNL     1     -53.777  58.429 347.035  1.00  0.00     0.041 A 
HETATM   22  C   UNL     1     -53.273  57.192 346.353  1.00  0.00    -0.027 A 
HETATM   23  C   UNL     1     -53.703  57.280 345.039  1.00  0.00    -0.024 A 
HETATM   24  C   UNL     1     -54.515  58.525 344.913  1.00  0.00     0.041 A 
HETATM   25  C   UNL     1     -52.412  56.178 346.970  1.00  0.00     0.051 C 
HETATM   26  N   UNL     1     -55.969  61.137 344.802  1.00  0.00    -0.354 N 
ATOM     27  HN  UNL     1     -55.740  60.916 345.771  1.00  0.00     0.166 HD
HETATM   28  C   UNL     1     -55.809  60.272 343.694  1.00  0.00     0.041 A 
HETATM   29  C   UNL     1     -56.407  60.896 342.539  1.00  0.00    -0.019 A 
HETATM   30  C   UNL     1     -56.818  62.183 342.955  1.00  0.00     0.046 A 
HETATM   31  C   UNL     1     -56.475  62.305 344.352  1.00  0.00     0.057 A 
HETATM   32  C   UNL     1     -56.544  60.343 341.189  1.00  0.00     0.052 C 
HETATM   33  C   UNL     1     -57.407  63.424 342.499  1.00  0.00     0.180 A 
HETATM   34  O   UNL     1     -57.835  63.726 341.397  1.00  0.00    -0.291 OA
HETATM   35  C   UNL     1     -57.358  64.406 343.713  1.00  0.00     0.197 A 
ENDROOT
BRANCH   8  36
HETATM   36  C   UNL     1     -58.386  65.413 347.074  1.00  0.00     0.021 C 
BRANCH  36  37
HETATM   37  C   UNL     1     -58.564  65.371 348.581  1.00  0.00     0.112 C 
BRANCH  37  38
HETATM   38  C   UNL     1     -60.021  65.386 348.909  1.00  0.00     0.259 C 
HETATM   39  O   UNL     1     -60.974  65.422 348.127  1.00  0.00    -0.265 OA
BRANCH  38  40
HETATM   40  O   UNL     1     -60.267  65.377 350.251  1.00  0.00    -0.318 OA
BRANCH  40  41
HETATM   41  C   UNL     1     -61.322  66.241 350.740  1.00  0.00     0.206 C 
BRANCH  41  42
HETATM   42  C   UNL     1     -60.811  66.995 351.916  1.00  0.00     0.002 C 
HETATM   43  C   UNL     1     -60.309  68.222 351.752  1.00  0.00    -0.086 C 
HETATM   44  C   UNL     1     -60.273  68.796 350.395  1.00  0.00     0.043 C 
BRANCH  43  45
HETATM   45  C   UNL     1     -59.770  69.062 352.871  1.00  0.00     0.033 C 
BRANCH  45  46
HETATM   46  C   UNL     1     -60.193  68.635 354.282  1.00  0.00     0.005 C 
BRANCH  46  47
HETATM   47  C   UNL     1     -59.024  68.022 355.044  1.00  0.00     0.004 C 
BRANCH  47  48
HETATM   48  C   UNL     1     -59.368  66.722 355.767  1.00  0.00    -0.019 C 
HETATM   49  C   UNL     1     -60.827  66.403 355.589  1.00  0.00     0.010 C 
BRANCH  48  50
HETATM   50  C   UNL     1     -59.012  66.753 357.254  1.00  0.00     0.004 C 
BRANCH  50  51
HETATM   51  C   UNL     1     -58.025  65.661 357.661  1.00  0.00     0.001 C 
BRANCH  51  52
HETATM   52  C   UNL     1     -58.652  64.524 358.457  1.00  0.00     0.004 C 
BRANCH  52  53
HETATM   53  C   UNL     1     -59.022  63.337 357.570  1.00  0.00    -0.019 C 
HETATM   54  C   UNL     1     -58.337  63.385 356.206  1.00  0.00     0.010 C 
BRANCH  53  55
HETATM   55  C   UNL     1     -60.523  63.293 357.359  1.00  0.00     0.004 C 
BRANCH  55  56
HETATM   56  C   UNL     1     -60.978  62.193 356.422  1.00  0.00     0.001 C 
BRANCH  56  57
HETATM   57  C   UNL     1     -61.988  62.758 355.426  1.00  0.00     0.004 C 
BRANCH  57  58
HETATM   58  C   UNL     1     -61.629  62.396 353.992  1.00  0.00    -0.023 C 
HETATM   59  C   UNL     1     -61.236  63.654 353.259  1.00  0.00     0.009 C 
HETATM   60  C   UNL     1     -60.480  61.416 353.972  1.00  0.00     0.009 C 
ENDBRANCH  57  58
ENDBRANCH  56  57
ENDBRANCH  55  56
ENDBRANCH  53  55
ENDBRANCH  52  53
ENDBRANCH  51  52
ENDBRANCH  50  51
ENDBRANCH  48  50
ENDBRANCH  47  48
ENDBRANCH  46  47
ENDBRANCH  45  46
ENDBRANCH  43  45
ENDBRANCH  41  42
ENDBRANCH  40  41
ENDBRANCH  38  40
ENDBRANCH  37  38
ENDBRANCH  36  37
ENDBRANCH   8  36
BRANCH  35  61
HETATM   61  C   UNL     1     -56.527  65.603 343.340  1.00  0.00     0.274 C 
HETATM   62  O   UNL     1     -56.888  66.666 342.850  1.00  0.00    -0.264 OA
BRANCH  61  63
HETATM   63  O   UNL     1     -55.183  65.422 343.593  1.00  0.00    -0.326 OA
HETATM   64  C   UNL     1     -54.340  66.539 343.340  1.00  0.00     0.213 C 
ENDBRANCH  61  63
ENDBRANCH  35  61
BRANCH  16  65
HETATM   65  C   UNL     1     -52.655  59.411 351.257  1.00  0.00     0.004 C 
HETATM   66  C   UNL     1     -53.075  58.900 352.411  1.00  0.00     0.012 C 
ENDBRANCH  16  65
BRANCH  23  67
HETATM   67  C   UNL     1     -53.475  56.330 343.934  1.00  0.00     0.037 C 
HETATM   68  C   UNL     1     -54.701  55.466 343.659  1.00  0.00     0.010 C 
ENDBRANCH  23  67
TORSDOF 22
ENDMDL
MODEL 5
REMARK VINA RESULT:   -14.894      1.240      2.508
REMARK INTER + INTRA:         -37.403
REMARK INTER:                 -34.056
REMARK INTRA:                  -3.346
REMARK UNBOUND:                -3.353
REMARK  22 active torsions:
REMARK  status: ('A' for Active; 'I' for Inactive)
REMARK    1  A    between atoms: C_8  and  C_12 
REMARK    2  A    between atoms: C_12  and  C_13 
REMARK    3  A    between atoms: C_13  and  C_14 
REMARK    4  A    between atoms: C_14  and  O_16 
REMARK    5  A    between atoms: O_16  and  C_49 
REMARK    6  A    between atoms: C_21  and  C_24 
REMARK    7  A    between atoms: C_30  and  C_33 
REMARK    8  A    between atoms: C_44  and  C_45 
REMARK    9  A    between atoms: C_45  and  O_47 
REMARK   10  A    between atoms: C_49  and  C_50 
REMARK   11  A    between atoms: C_51  and  C_53 
REMARK   12  A    between atoms: C_53  and  C_54 
REMARK   13  A    between atoms: C_54  and  C_55 
REMARK   14  A    between atoms: C_55  and  C_56 
REMARK   15  A    between atoms: C_56  and  C_58 
REMARK   16  A    between atoms: C_58  and  C_59 
REMARK   17  A    between atoms: C_59  and  C_60 
REMARK   18  A    between atoms: C_60  and  C_61 
REMARK   19  A    between atoms: C_61  and  C_63 
REMARK   20  A    between atoms: C_63  and  C_64 
REMARK   21  A    between atoms: C_64  and  C_65 
REMARK   22  A    between atoms: C_65  and  C_66 
ROOT
HETATM    1  C   UNL     1     -56.773  63.589 344.809  1.00  0.00     0.014 A 
HETATM    2  C   UNL     1     -54.894  63.341 349.238  1.00  0.00     0.055 C 
HETATM    3  C   UNL     1     -53.456  58.729 348.254  1.00  0.00     0.060 C 
HETATM    4  C   UNL     1     -55.175  58.997 343.677  1.00  0.00     0.060 C 
HETATM    5  N   UNL     1     -55.678  63.210 346.935  1.00  0.00    -0.362 N 
ATOM      6  HN  UNL     1     -55.295  62.288 346.722  1.00  0.00     0.165 HD
HETATM    7  C   UNL     1     -56.492  63.986 346.063  1.00  0.00     0.024 C 
HETATM    8  C   UNL     1     -56.873  65.300 346.706  1.00  0.00     0.046 C 
HETATM    9  C   UNL     1     -55.968  65.321 347.974  1.00  0.00     0.041 C 
HETATM   10  C   UNL     1     -55.499  63.870 348.058  1.00  0.00     0.016 C 
HETATM   11  C   UNL     1     -54.824  66.274 347.770  1.00  0.00     0.017 C 
HETATM   12  N   UNL     1     -54.402  61.043 348.408  1.00  0.00    -0.355 N 
ATOM     13  HN  UNL     1     -54.797  61.118 347.470  1.00  0.00     0.166 HD
HETATM   14  C   UNL     1     -54.423  62.069 349.359  1.00  0.00     0.041 A 
HETATM   15  C   UNL     1     -53.799  61.521 350.588  1.00  0.00    -0.023 A 
HETATM   16  C   UNL     1     -53.387  60.227 350.325  1.00  0.00    -0.002 A 
HETATM   17  C   UNL     1     -53.765  59.887 348.914  1.00  0.00     0.045 A 
HETATM   18  C   UNL     1     -53.654  62.372 351.768  1.00  0.00     0.051 C 
HETATM   19  N   UNL     1     -54.548  59.093 346.073  1.00  0.00    -0.355 N 
ATOM     20  HN  UNL     1     -55.009  59.970 346.312  1.00  0.00     0.166 HD
HETATM   21  C   UNL     1     -53.827  58.351 346.913  1.00  0.00     0.041 A 
HETATM   22  C   UNL     1     -53.344  57.114 346.217  1.00  0.00    -0.027 A 
HETATM   23  C   UNL     1     -53.780  57.218 344.907  1.00  0.00    -0.024 A 
HETATM   24  C   UNL     1     -54.575  58.476 344.796  1.00  0.00     0.041 A 
HETATM   25  C   UNL     1     -52.492  56.083 346.821  1.00  0.00     0.051 C 
HETATM   26  N   UNL     1     -55.995  61.107 344.717  1.00  0.00    -0.354 N 
ATOM     27  HN  UNL     1     -55.764  60.875 345.682  1.00  0.00     0.166 HD
HETATM   28  C   UNL     1     -55.853  60.250 343.600  1.00  0.00     0.041 A 
HETATM   29  C   UNL     1     -56.449  60.892 342.454  1.00  0.00    -0.019 A 
HETATM   30  C   UNL     1     -56.841  62.181 342.883  1.00  0.00     0.046 A 
HETATM   31  C   UNL     1     -56.489  62.286 344.280  1.00  0.00     0.057 A 
HETATM   32  C   UNL     1     -56.601  60.352 341.100  1.00  0.00     0.052 C 
HETATM   33  C   UNL     1     -57.416  63.433 342.442  1.00  0.00     0.180 A 
HETATM   34  O   UNL     1     -57.847  63.751 341.345  1.00  0.00    -0.291 OA
HETATM   35  C   UNL     1     -57.347  64.404 343.664  1.00  0.00     0.197 A 
ENDROOT
BRANCH   8  36
HETATM   36  C   UNL     1     -58.342  65.395 347.040  1.00  0.00     0.021 C 
BRANCH  36  37
HETATM   37  C   UNL     1     -58.500  66.046 348.402  1.00  0.00     0.112 C 
BRANCH  37  38
HETATM   38  C   UNL     1     -59.816  65.656 348.989  1.00  0.00     0.259 C 
HETATM   39  O   UNL     1     -60.066  64.694 349.720  1.00  0.00    -0.265 OA
BRANCH  38  40
HETATM   40  O   UNL     1     -60.832  66.490 348.624  1.00  0.00    -0.318 OA
BRANCH  40  41
HETATM   41  C   UNL     1     -61.860  66.758 349.610  1.00  0.00     0.206 C 
BRANCH  41  42
HETATM   42  C   UNL     1     -61.221  67.356 350.812  1.00  0.00     0.002 C 
HETATM   43  C   UNL     1     -60.838  68.635 350.796  1.00  0.00    -0.086 C 
HETATM   44  C   UNL     1     -61.060  69.423 349.571  1.00  0.00     0.043 C 
BRANCH  43  45
HETATM   45  C   UNL     1     -60.186  69.328 351.955  1.00  0.00     0.033 C 
BRANCH  45  46
HETATM   46  C   UNL     1     -59.404  68.421 352.913  1.00  0.00     0.005 C 
BRANCH  46  47
HETATM   47  C   UNL     1     -59.872  68.611 354.352  1.00  0.00     0.004 C 
BRANCH  47  48
HETATM   48  C   UNL     1     -60.358  67.327 355.020  1.00  0.00    -0.019 C 
HETATM   49  C   UNL     1     -59.425  66.938 356.133  1.00  0.00     0.010 C 
BRANCH  48  50
HETATM   50  C   UNL     1     -60.521  66.167 354.037  1.00  0.00     0.004 C 
BRANCH  50  51
HETATM   51  C   UNL     1     -61.907  65.528 354.081  1.00  0.00     0.001 C 
BRANCH  51  52
HETATM   52  C   UNL     1     -61.969  64.139 353.459  1.00  0.00     0.004 C 
BRANCH  52  53
HETATM   53  C   UNL     1     -61.234  63.098 354.301  1.00  0.00    -0.019 C 
HETATM   54  C   UNL     1     -60.925  61.822 353.521  1.00  0.00     0.010 C 
BRANCH  53  55
HETATM   55  C   UNL     1     -62.061  62.736 355.519  1.00  0.00     0.004 C 
BRANCH  55  56
HETATM   56  C   UNL     1     -61.235  62.303 356.713  1.00  0.00     0.001 C 
BRANCH  56  57
HETATM   57  C   UNL     1     -60.696  63.536 357.433  1.00  0.00     0.004 C 
BRANCH  57  58
HETATM   58  C   UNL     1     -59.232  63.371 357.817  1.00  0.00    -0.023 C 
HETATM   59  C   UNL     1     -58.389  63.496 356.573  1.00  0.00     0.009 C 
HETATM   60  C   UNL     1     -58.830  64.432 358.813  1.00  0.00     0.009 C 
ENDBRANCH  57  58
ENDBRANCH  56  57
ENDBRANCH  55  56
ENDBRANCH  53  55
ENDBRANCH  52  53
ENDBRANCH  51  52
ENDBRANCH  50  51
ENDBRANCH  48  50
ENDBRANCH  47  48
ENDBRANCH  46  47
ENDBRANCH  45  46
ENDBRANCH  43  45
ENDBRANCH  41  42
ENDBRANCH  40  41
ENDBRANCH  38  40
ENDBRANCH  37  38
ENDBRANCH  36  37
ENDBRANCH   8  36
BRANCH  35  61
HETATM   61  C   UNL     1     -56.502  65.593 343.297  1.00  0.00     0.274 C 
HETATM   62  O   UNL     1     -56.850  66.661 342.807  1.00  0.00    -0.264 OA
BRANCH  61  63
HETATM   63  O   UNL     1     -55.161  65.398 343.554  1.00  0.00    -0.326 OA
HETATM   64  C   UNL     1     -54.314  66.525 343.366  1.00  0.00     0.213 C 
ENDBRANCH  61  63
ENDBRANCH  35  61
BRANCH  16  65
HETATM   65  C   UNL     1     -52.667  59.281 351.137  1.00  0.00     0.004 C 
HETATM   66  C   UNL     1     -53.003  58.895 352.365  1.00  0.00     0.012 C 
ENDBRANCH  16  65
BRANCH  23  67
HETATM   67  C   UNL     1     -53.571  56.276 343.792  1.00  0.00     0.037 C 
HETATM   68  C   UNL     1     -54.843  55.512 343.442  1.00  0.00     0.010 C 
ENDBRANCH  23  67
TORSDOF 22
ENDMDL
