REMARK  6 active torsions:
REMARK  status: ('A' for Active; 'I' for Inactive)
REMARK       I    between atoms: N_5  and  C_29 
REMARK    1  A    between atoms: N_5  and  C_20 
REMARK    2  A    between atoms: C_9  and  C_29 
REMARK       I    between atoms: N_12  and  C_18 
REMARK    3  A    between atoms: C_15  and  C_16 
REMARK    4  A    between atoms: C_18  and  C_19 
REMARK    5  A    between atoms: C_19  and  C_20 
REMARK    6  A    between atoms: C_20  and  C_21 
ROOT
HETATM    1  N   UNL     1     -23.065 -19.139   0.678  1.00  0.00    -0.348 N 
ATOM      2  HN  UNL     1     -24.053 -18.885   0.655  1.00  0.00     0.163 HD
HETATM    3  C   UNL     1     -22.580 -20.001  -0.223  1.00  0.00     0.256 C 
HETATM    4  O   UNL     1     -21.384 -20.203  -0.354  1.00  0.00    -0.268 OA
ENDROOT
BRANCH   1   5
HETATM    5  C   UNL     1     -22.188 -18.558   1.697  1.00  0.00     0.126 C 
BRANCH   5   6
HETATM    6  C   UNL     1     -22.131 -19.358   2.973  1.00  0.00    -0.033 A 
HETATM    7  C   UNL     1     -23.202 -20.150   3.361  1.00  0.00     0.036 A 
HETATM    8  C   UNL     1     -23.208 -20.742   4.606  1.00  0.00     0.073 A 
HETATM    9 CL   UNL     1     -24.551 -21.731   5.071  1.00  0.00    -0.081 Cl
HETATM   10  C   UNL     1     -22.132 -20.551   5.463  1.00  0.00     0.138 A 
HETATM   11  C   UNL     1     -21.045 -19.811   5.084  1.00  0.00     0.044 A 
HETATM   12  F   UNL     1     -22.192 -21.025   6.733  1.00  0.00    -0.204 F 
HETATM   13  C   UNL     1     -21.052 -19.209   3.836  1.00  0.00     0.012 A 
ENDBRANCH   5   6
BRANCH   5  14
HETATM   14  C   UNL     1     -22.644 -17.147   2.040  1.00  0.00     0.132 C 
BRANCH  14  15
HETATM   15  C   UNL     1     -22.705 -16.323   0.782  1.00  0.00     0.217 C 
HETATM   16  N   UNL     1     -23.911 -15.927   0.410  1.00  0.00    -0.370 N 
ATOM     17  HN2 UNL     1     -24.748 -16.055   0.978  1.00  0.00     0.159 HD
ATOM     18  HN1 UNL     1     -23.952 -15.369  -0.443  1.00  0.00     0.159 HD
HETATM   19  O   UNL     1     -21.696 -16.169   0.097  1.00  0.00    -0.274 OA
ENDBRANCH  14  15
ENDBRANCH   5  14
ENDBRANCH   1   5
BRANCH   3  20
HETATM   20  C   UNL     1     -23.563 -20.743  -1.042  1.00  0.00     0.077 A 
HETATM   21  C   UNL     1     -23.304 -21.685  -2.068  1.00  0.00     0.078 A 
HETATM   22  N   UNL     1     -24.436 -22.246  -2.521  1.00  0.00    -0.299 N 
HETATM   23  N   UNL     1     -25.403 -21.641  -1.796  1.00  0.00    -0.310 N 
ATOM     24  HN  UNL     1     -24.542 -22.960  -3.242  1.00  0.00     0.187 HD
HETATM   25  C   UNL     1     -24.932 -20.750  -0.915  1.00  0.00     0.126 A 
ATOM     26  HN  UNL     1     -26.396 -21.844  -1.909  1.00  0.00     0.186 HD
BRANCH  21  27
HETATM   27  C   UNL     1     -22.023 -22.089  -2.659  1.00  0.00     0.032 A 
HETATM   28  C   UNL     1     -21.612 -23.414  -2.579  1.00  0.00     0.018 A 
HETATM   29  C   UNL     1     -20.391 -23.813  -3.084  1.00  0.00     0.025 A 
HETATM   30  C   UNL     1     -19.576 -22.884  -3.673  1.00  0.00     0.037 A 
HETATM   31 CL   UNL     1     -18.033 -23.388  -4.283  1.00  0.00    -0.084 Cl
HETATM   32  C   UNL     1     -19.944 -21.561  -3.792  1.00  0.00     0.067 A 
HETATM   33  C   UNL     1     -21.168 -21.199  -3.284  1.00  0.00     0.130 A 
HETATM   34  F   UNL     1     -21.537 -19.912  -3.394  1.00  0.00    -0.205 F 
ENDBRANCH  21  27
ENDBRANCH   3  20
TORSDOF 6
