REMARK  6 active torsions:
REMARK  status: ('A' for Active; 'I' for Inactive)
REMARK    1  A    between atoms: N_5  and  C_17 
REMARK       I    between atoms: N_5  and  C_26 
REMARK    2  A    between atoms: C_8  and  C_26 
REMARK       I    between atoms: N_11  and  C_15 
REMARK    3  A    between atoms: C_12  and  C_13 
REMARK    4  A    between atoms: C_15  and  C_16 
REMARK    5  A    between atoms: C_16  and  C_17 
REMARK    6  A    between atoms: C_17  and  C_18 
ROOT
HETATM    1  N   UNL     1       0.062   1.838  -0.292  1.00  0.00    -0.348 N 
HETATM    2  C   UNL     1       0.489   0.559  -0.780  1.00  0.00     0.256 C 
HETATM    3  O   UNL     1       0.743  -0.373   0.030  1.00  0.00    -0.268 OA
HETATM    4  H   UNL     1      -0.022   2.629  -0.968  1.00  0.00     0.163 HD
ENDROOT
BRANCH   1   5
HETATM    5  C   UNL     1      -0.336   2.045   1.105  1.00  0.00     0.126 C 
BRANCH   5   6
HETATM    6  C   UNL     1      -0.378   3.546   1.449  1.00  0.00     0.132 C 
BRANCH   6   7
HETATM    7  C   UNL     1       0.999   4.136   1.469  1.00  0.00     0.217 C 
HETATM    8  O   UNL     1       1.546   4.494   0.392  1.00  0.00    -0.274 OA
HETATM    9  N   UNL     1       1.705   4.278   2.702  1.00  0.00    -0.370 N 
HETATM   10  H   UNL     1       2.683   4.649   2.711  1.00  0.00     0.159 HD
HETATM   11  H   UNL     1       1.267   3.989   3.602  1.00  0.00     0.159 HD
ENDBRANCH   6   7
ENDBRANCH   5   6
BRANCH   5  12
HETATM   12  C   UNL     1      -1.690   1.414   1.350  1.00  0.00    -0.033 A 
HETATM   13  C   UNL     1      -2.778   1.706   0.508  1.00  0.00     0.012 A 
HETATM   14  C   UNL     1      -4.028   1.129   0.745  1.00  0.00     0.044 A 
HETATM   15  C   UNL     1      -4.207   0.255   1.822  1.00  0.00     0.138 A 
HETATM   16  F   UNL     1      -5.424  -0.301   2.041  1.00  0.00    -0.204 F 
HETATM   17  C   UNL     1      -3.133  -0.038   2.670  1.00  0.00     0.073 A 
HETATM   18 CL   UNL     1      -3.342  -1.132   4.025  1.00  0.00    -0.081 Cl
HETATM   19  C   UNL     1      -1.881   0.542   2.437  1.00  0.00     0.036 A 
ENDBRANCH   5  12
ENDBRANCH   1   5
BRANCH   2  20
HETATM   20  C   UNL     1       0.620   0.323  -2.231  1.00  0.00     0.077 A 
HETATM   21  C   UNL     1       1.345  -0.660  -2.896  1.00  0.00     0.078 A 
HETATM   22  N   UNL     1       1.089  -0.580  -4.217  1.00  0.00    -0.299 N 
HETATM   23  N   UNL     1       0.235   0.413  -4.407  1.00  0.00    -0.310 N 
ATOM     24  HN  UNL     1       1.484  -1.179  -4.942  1.00  0.00     0.187 HD
HETATM   25  C   UNL     1      -0.068   0.984  -3.229  1.00  0.00     0.126 A 
HETATM   26  H   UNL     1      -0.146   0.689  -5.338  1.00  0.00     0.186 HD
BRANCH  21  27
HETATM   27  C   UNL     1       2.325  -1.608  -2.322  1.00  0.00     0.032 A 
HETATM   28  C   UNL     1       3.255  -1.173  -1.363  1.00  0.00     0.018 A 
HETATM   29  C   UNL     1       4.210  -2.057  -0.857  1.00  0.00     0.025 A 
HETATM   30  C   UNL     1       4.258  -3.375  -1.316  1.00  0.00     0.037 A 
HETATM   31  C   UNL     1       3.348  -3.811  -2.282  1.00  0.00     0.067 A 
HETATM   32 CL   UNL     1       5.476  -4.470  -0.702  1.00  0.00    -0.084 Cl
HETATM   33  C   UNL     1       2.384  -2.933  -2.786  1.00  0.00     0.130 A 
HETATM   34  F   UNL     1       1.510  -3.381  -3.726  1.00  0.00    -0.205 F 
ENDBRANCH  21  27
ENDBRANCH   2  20
TORSDOF 6
