REMARK  2 active torsions:
REMARK  status: ('A' for Active; 'I' for Inactive)
REMARK    1  A    between atoms: C_1  and  N_8 
REMARK    2  A    between atoms: C_4  and  O_7 
ROOT
HETATM    1  C   UNL     1       0.206   1.235  -0.182  1.00  0.00     0.103 A 
HETATM    2  C   UNL     1      -0.697   0.157  -0.234  1.00  0.00     0.039 A 
HETATM    3  C   UNL     1      -0.249  -1.154  -0.042  1.00  0.00     0.039 A 
HETATM    4  C   UNL     1       1.107  -1.405   0.205  1.00  0.00     0.065 A 
HETATM    5  C   UNL     1       2.010  -0.340   0.258  1.00  0.00     0.039 A 
HETATM    6  C   UNL     1       1.566   0.972   0.067  1.00  0.00     0.039 A 
ENDROOT
BRANCH   1   7
HETATM    7  N   UNL     1      -0.249   2.586  -0.379  1.00  0.00    -0.116 N 
HETATM    8  O   UNL     1       0.637   3.638  -0.327  1.00  0.00    -0.532 OA
HETATM    9  O   UNL     1      -1.455   2.826  -0.599  1.00  0.00    -0.532 OA
ENDBRANCH   1   7
BRANCH   4  10
HETATM   10  O   UNL     1       1.564  -2.707   0.398  1.00  0.00    -0.361 OA
HETATM   11  H   UNL     1       0.934  -3.500   0.365  1.00  0.00     0.217 HD
ENDBRANCH   4  10
TORSDOF 2
